 DBCSR| CPU Multiplication driver                                           XSMM
 DBCSR| Multrec recursion limit                                              512
 DBCSR| Multiplication stack size                                           1000
 DBCSR| Maximum elements for images                                    UNLIMITED
 DBCSR| Multiplicative factor virtual images                                   1
 DBCSR| Use multiplication densification                                       T
 DBCSR| Multiplication size stacks                                             3
 DBCSR| Use memory pool for CPU allocation                                     F
 DBCSR| Number of 3D layers                                               SINGLE
 DBCSR| Use MPI memory allocation                                              F
 DBCSR| Use RMA algorithm                                                      F
 DBCSR| Use Communication thread                                               T
 DBCSR| Communication thread load                                             87
 DBCSR| MPI: My node id                                                        0
 DBCSR| MPI: Number of nodes                                                  40
 DBCSR| OMP: Current number of threads                                         1
 DBCSR| OMP: Max number of threads                                             1
 DBCSR| Split modifier for TAS multiplication algorithm                  1.0E+00


  **** **** ******  **  PROGRAM STARTED AT               2024-11-11 10:22:22.719
 ***** ** ***  *** **   PROGRAM STARTED ON        bc12016.int.ets1.calculquebec.
 **    ****   ******    PROGRAM STARTED BY                              ekadashi
 ***** **    ** ** **   PROGRAM PROCESS ID                               3093444
  **** **  *******  **  PROGRAM STARTED IN /scratch/ekadashi/Libra_CP2K/SiGe_Het
                                           ero/step2_B3LYP/SET2/job2

 CP2K| version string:                                          CP2K version 9.1
 CP2K| source code revision number:                                  git:d8d7100
 CP2K| cp2kflags: omp libint fftw3 libxc parallel mpi3 scalapack xsmm plumed2   
 CP2K| is freely available from                            https://www.cp2k.org/
 CP2K| Program compiled at                       Thu 20 Jan 2022 10:47:29 PM UTC
 CP2K| Program compiled on                           build-node.computecanada.ca
 CP2K| Program compiled for                                   Linux-x86-64-gofbf
 CP2K| Data directory path    /cvmfs/soft.computecanada.ca/easybuild/software/20
 CP2K| Input file name                                       Diag_libra-2007.inp

 GLOBAL| Force Environment number                                              1
 GLOBAL| Basis set file name                                        BASIS_MOLOPT
 GLOBAL| Potential file name                                           POTENTIAL
 GLOBAL| MM Potential file name                                     MM_POTENTIAL
 GLOBAL| Coordinate file name                                     coord-2007.xyz
 GLOBAL| Method name                                                        CP2K
 GLOBAL| Project name                                            Diag_libra-2007
 GLOBAL| Run type                                                         ENERGY
 GLOBAL| FFT library                                                       FFTW3
 GLOBAL| Diagonalization library                                       ScaLAPACK
 GLOBAL| Orthonormality check for eigenvectors                          DISABLED
 GLOBAL| Matrix multiplication library                                 ScaLAPACK
 GLOBAL| All-to-all communication in single precision                          F
 GLOBAL| FFTs using library dependent lengths                                  F
 GLOBAL| Grid backend                                                       AUTO
 GLOBAL| Global print level                                               MEDIUM
 GLOBAL| MPI I/O enabled                                                       T
 GLOBAL| Total number of message passing processes                            40
 GLOBAL| Number of threads for this process                                    1
 GLOBAL| This output is from process                                           0
 GLOBAL| Stack size for threads created by OpenMP (OMP_STACKSIZE)        default
 GLOBAL| CPU model name                 Intel(R) Xeon(R) Gold 6148 CPU @ 2.40GHz
 GLOBAL| CPUID                                                              1003

 MEMORY| system memory details [Kb]
 MEMORY|                        rank 0           min           max       average
 MEMORY| MemTotal            196639208     196639208     196639208     196639208
 MEMORY| MemFree             178448772     178448772     178448772     178448772
 MEMORY| Buffers                    76            76            76            76
 MEMORY| Cached                5345260       5345260       5345260       5345260
 MEMORY| Slab                  1535760       1535760       1535760       1535760
 MEMORY| SReclaimable           344012        344012        344012        344012
 MEMORY| MemLikelyFree       184138120     184138120     184138120     184138120


 *** Fundamental physical constants (SI units) ***

 *** Literature: B. J. Mohr and B. N. Taylor,
 ***             CODATA recommended values of the fundamental physical
 ***             constants: 2006, Web Version 5.1
 ***             http://physics.nist.gov/constants

 Speed of light in vacuum [m/s]                             2.99792458000000E+08
 Magnetic constant or permeability of vacuum [N/A**2]       1.25663706143592E-06
 Electric constant or permittivity of vacuum [F/m]          8.85418781762039E-12
 Planck constant (h) [J*s]                                  6.62606896000000E-34
 Planck constant (h-bar) [J*s]                              1.05457162825177E-34
 Elementary charge [C]                                      1.60217648700000E-19
 Electron mass [kg]                                         9.10938215000000E-31
 Electron g factor [ ]                                     -2.00231930436220E+00
 Proton mass [kg]                                           1.67262163700000E-27
 Fine-structure constant                                    7.29735253760000E-03
 Rydberg constant [1/m]                                     1.09737315685270E+07
 Avogadro constant [1/mol]                                  6.02214179000000E+23
 Boltzmann constant [J/K]                                   1.38065040000000E-23
 Atomic mass unit [kg]                                      1.66053878200000E-27
 Bohr radius [m]                                            5.29177208590000E-11

 *** Conversion factors ***

 [u] -> [a.u.]                                              1.82288848426455E+03
 [Angstrom] -> [Bohr] = [a.u.]                              1.88972613288564E+00
 [a.u.] = [Bohr] -> [Angstrom]                              5.29177208590000E-01
 [a.u.] -> [s]                                              2.41888432650478E-17
 [a.u.] -> [fs]                                             2.41888432650478E-02
 [a.u.] -> [J]                                              4.35974393937059E-18
 [a.u.] -> [N]                                              8.23872205491840E-08
 [a.u.] -> [K]                                              3.15774647902944E+05
 [a.u.] -> [kJ/mol]                                         2.62549961709828E+03
 [a.u.] -> [kcal/mol]                                       6.27509468713739E+02
 [a.u.] -> [Pa]                                             2.94210107994716E+13
 [a.u.] -> [bar]                                            2.94210107994716E+08
 [a.u.] -> [atm]                                            2.90362800883016E+08
 [a.u.] -> [eV]                                             2.72113838565563E+01
 [a.u.] -> [Hz]                                             6.57968392072181E+15
 [a.u.] -> [1/cm] (wave numbers)                            2.19474631370540E+05
 [a.u./Bohr**2] -> [1/cm]                                   5.14048714338585E+03
 

 CELL_TOP| Volume [angstrom^3]:                                      6540.008810
 CELL_TOP| Vector a [angstrom    15.928     0.000     0.000   |a| =    15.927500
 CELL_TOP| Vector b [angstrom    -7.965    13.786     0.000   |b| =    15.921700
 CELL_TOP| Vector c [angstrom    -0.000     0.000    29.784   |c| =    29.783600
 CELL_TOP| Angle (b,c), alpha [degree]:                                89.999800
 CELL_TOP| Angle (a,c), beta  [degree]:                                90.000200
 CELL_TOP| Angle (a,b), gamma [degree]:                               120.015200
 CELL_TOP| Numerically orthorhombic:                                          NO

 GENERATE|  Preliminary Number of Bonds generated:                             0
 GENERATE|  Achieved consistency in connectivity generation.

 CELL| Volume [angstrom^3]:                                          6540.008810
 CELL| Vector a [angstrom]:      15.928     0.000     0.000   |a| =    15.927500
 CELL| Vector b [angstrom]:      -7.965    13.786     0.000   |b| =    15.921700
 CELL| Vector c [angstrom]:      -0.000     0.000    29.784   |c| =    29.783600
 CELL| Angle (b,c), alpha [degree]:                                    89.999800
 CELL| Angle (a,c), beta  [degree]:                                    90.000200
 CELL| Angle (a,b), gamma [degree]:                                   120.015200
 CELL| Numerically orthorhombic:                                              NO

 CELL_REF| Volume [angstrom^3]:                                      6540.008810
 CELL_REF| Vector a [angstrom    15.928     0.000     0.000   |a| =    15.927500
 CELL_REF| Vector b [angstrom    -7.965    13.786     0.000   |b| =    15.921700
 CELL_REF| Vector c [angstrom    -0.000     0.000    29.784   |c| =    29.783600
 CELL_REF| Angle (b,c), alpha [degree]:                                89.999800
 CELL_REF| Angle (a,c), beta  [degree]:                                90.000200
 CELL_REF| Angle (a,b), gamma [degree]:                               120.015200
 CELL_REF| Numerically orthorhombic:                                          NO

 *******************************************************************************
 *******************************************************************************
 **                                                                           **
 **     #####                         ##              ##                      **
 **    ##   ##            ##          ##              ##                      **
 **   ##     ##                       ##            ######                    **
 **   ##     ##  ##   ##  ##   #####  ##  ##   ####   ##    #####    #####    **
 **   ##     ##  ##   ##  ##  ##      ## ##   ##      ##   ##   ##  ##   ##   **
 **   ##  ## ##  ##   ##  ##  ##      ####     ###    ##   ######   ######    **
 **    ##  ###   ##   ##  ##  ##      ## ##      ##   ##   ##       ##        **
 **     #######   #####   ##   #####  ##  ##  ####    ##    #####   ##        **
 **           ##                                                    ##        **
 **                                                                           **
 **                                                ... make the atoms dance   **
 **                                                                           **
 **            Copyright (C) by CP2K developers group (2000-2021)             **
 **                      J. Chem. Phys. 152, 194103 (2020)                    **
 **                                                                           **
 *******************************************************************************

 DFT| Spin restricted Kohn-Sham (RKS) calculation                            RKS
 DFT| Multiplicity                                                             1
 DFT| Number of spin states                                                    1
 DFT| Charge                                                                   0
 DFT| Self-interaction correction (SIC)                                       NO
 DFT| Cutoffs: density                                              1.000000E-10
 DFT|          gradient                                             1.000000E-10
 DFT|          tau                                                  1.000000E-10
 DFT|          cutoff_smoothing_range                               0.000000E+00
 DFT| XC density smoothing                                                  NONE
 DFT| XC derivatives                                                          PW
 FUNCTIONAL| ROUTINE=NEW
 FUNCTIONAL| BECKE88:
 FUNCTIONAL| A. Becke, Phys. Rev. A 38, 3098 (1988) {LDA version}               
 FUNCTIONAL| LYP:
 FUNCTIONAL| C. Lee, W. Yang, R.G. Parr, Phys. Rev. B, 37, 785 (1988) {LDA versi
 FUNCTIONAL| on}                                                                
 FUNCTIONAL| VWN:
 FUNCTIONAL| S. H. Vosko, L. Wilk and M. Nusair, Can. J. Phys. 58, 1200 (1980) {
 FUNCTIONAL| LDA version}                                                       
 FUNCTIONAL| XALPHA:
 FUNCTIONAL| Dirac/Slater local exchange; parameter=  0.666 {LDA}               
 vdW POTENTIAL|                                                   Pair Potential
 vdW POTENTIAL|          DFT-D3 (Version 3.1)
 vdW POTENTIAL|          Potential Form: S. Grimme et al, JCP 132: 154104 (2010)
 vdW POTENTIAL|          Zero Damping
 vdW POTENTIAL|          Cutoff Radius [Bohr]:                             20.00
 vdW POTENTIAL|          s6 Scaling Factor:                               1.0000
 vdW POTENTIAL|          sr6 Scaling Factor:                              1.2610
 vdW POTENTIAL|          s8 Scaling Factor:                               1.7030
 vdW POTENTIAL|          Cutoff for CN calculation:                   0.1000E-05

 QS| Method:                                                                 GPW
 QS| Density plane wave grid type                        NON-SPHERICAL FULLSPACE
 QS| Number of grid levels:                                                    4
 QS| Density cutoff [a.u.]:                                                175.0
 QS| Multi grid cutoff [a.u.]: 1) grid level                               175.0
 QS|                           2) grid level                                58.3
 QS|                           3) grid level                                19.4
 QS|                           4) grid level                                 6.5
 QS| Grid level progression factor:                                          3.0
 QS| Relative density cutoff [a.u.]:                                        25.0
 QS| Interaction thresholds: eps_pgf_orb:                                1.0E-05
 QS|                         eps_filter_matrix:                          0.0E+00
 QS|                         eps_core_charge:                            1.0E-12
 QS|                         eps_rho_gspace:                             1.0E-10
 QS|                         eps_rho_rspace:                             1.0E-10
 QS|                         eps_gvg_rspace:                             1.0E-05
 QS|                         eps_ppl:                                    1.0E-02
 QS|                         eps_ppnl:                                   1.0E-07


 ATOMIC KIND INFORMATION

  1. Atomic kind: Si                                    Number of atoms:      32

     Orbital Basis Set                                     DZVP-MOLOPT-SR-GTH-q4

       Number of orbital shell sets:                                           1
       Number of orbital shells:                                               5
       Number of primitive Cartesian functions:                                4
       Number of Cartesian basis functions:                                   14
       Number of spherical basis functions:                                   13
       Norm type:                                                              2

       Normalised Cartesian orbitals:

                        Set   Shell   Orbital            Exponent    Coefficient

                          1       1    2s                1.256768       0.294045
                                                         0.506394      -0.015884
                                                         0.238884      -0.207657
                                                         0.087337      -0.036225

                          1       2    3s                1.256768      -1.532347
                                                         0.506394       0.524539
                                                         0.238884       0.025013
                                                         0.087337      -0.052203

                          1       3    3px               1.256768       0.152274
                                                         0.506394      -0.154145
                                                         0.238884      -0.115581
                                                         0.087337      -0.028372
                          1       3    3py               1.256768       0.152274
                                                         0.506394      -0.154145
                                                         0.238884      -0.115581
                                                         0.087337      -0.028372
                          1       3    3pz               1.256768       0.152274
                                                         0.506394      -0.154145
                                                         0.238884      -0.115581
                                                         0.087337      -0.028372

                          1       4    4px               1.256768       0.313378
                                                         0.506394      -0.415360
                                                         0.238884      -0.022539
                                                         0.087337       0.078473
                          1       4    4py               1.256768       0.313378
                                                         0.506394      -0.415360
                                                         0.238884      -0.022539
                                                         0.087337       0.078473
                          1       4    4pz               1.256768       0.313378
                                                         0.506394      -0.415360
                                                         0.238884      -0.022539
                                                         0.087337       0.078473

                          1       5    4dx2              1.256768       0.325879
                                                         0.506394       0.163831
                                                         0.238884       0.044076
                                                         0.087337       0.010608
                          1       5    4dxy              1.256768       0.564439
                                                         0.506394       0.283764
                                                         0.238884       0.076342
                                                         0.087337       0.018373
                          1       5    4dxz              1.256768       0.564439
                                                         0.506394       0.283764
                                                         0.238884       0.076342
                                                         0.087337       0.018373
                          1       5    4dy2              1.256768       0.325879
                                                         0.506394       0.163831
                                                         0.238884       0.044076
                                                         0.087337       0.010608
                          1       5    4dyz              1.256768       0.564439
                                                         0.506394       0.283764
                                                         0.238884       0.076342
                                                         0.087337       0.018373
                          1       5    4dz2              1.256768       0.325879
                                                         0.506394       0.163831
                                                         0.238884       0.044076
                                                         0.087337       0.010608

     Auxiliary Fit Basis Set                                               cFIT3

       Number of orbital shell sets:                                           4
       Number of orbital shells:                                               4
       Number of primitive Cartesian functions:                                6
       Number of Cartesian basis functions:                                    8
       Number of spherical basis functions:                                    8
       Norm type:                                                              2

       Normalised Cartesian orbitals:

                        Set   Shell   Orbital            Exponent    Coefficient

                          1       1    1s                0.096480       0.123378

                          2       1    1s                0.246960      -0.309315
                                                         1.277560       0.429908

                          3       1    1px               0.089490       0.069768
                          3       1    1py               0.089490       0.069768
                          3       1    1pz               0.089490       0.069768

                          4       1    1px               0.295630       0.313983
                                                         2.202470      -0.124968
                          4       1    1py               0.295630       0.313983
                                                         2.202470      -0.124968
                          4       1    1pz               0.295630       0.313983
                                                         2.202470      -0.124968

       Atomic covalent radius [Angstrom]:                                  1.110

       Atomic van der Waals radius [Angstrom]:                             2.100

     GTH Potential information for                                       GTH-PBE

       Description:                       Goedecker-Teter-Hutter pseudopotential
                                           Goedecker et al., PRB 54, 1703 (1996)
                                          Hartwigsen et al., PRB 58, 3641 (1998)
                                                      Krack, TCA 114, 145 (2005)

       Gaussian exponent of the core charge distribution:               2.582645
       Electronic configuration (s p d ...):                               2   2

       Parameters of the local part of the GTH pseudopotential:

                          rloc        C1          C2          C3          C4
                        0.440000   -6.269288

       Parameters of the non-local part of the GTH pseudopotential:

                   l      r(l)      h(i,j,l)

                   0    0.435634    8.951742   -2.706271
                                   -2.706271    3.493781
                   1    0.497942    2.431277

  2. Atomic kind: H                                     Number of atoms:      64

     Orbital Basis Set                                     DZVP-MOLOPT-SR-GTH-q1

       Number of orbital shell sets:                                           1
       Number of orbital shells:                                               3
       Number of primitive Cartesian functions:                                5
       Number of Cartesian basis functions:                                    5
       Number of spherical basis functions:                                    5
       Norm type:                                                              2

       Normalised Cartesian orbitals:

                        Set   Shell   Orbital            Exponent    Coefficient

                          1       1    2s               10.068468      -0.133023
                                                         2.680223      -0.177618
                                                         0.791502      -0.258419
                                                         0.239116      -0.107525
                                                         0.082193      -0.014019

                          1       2    3s               10.068468       0.344673
                                                         2.680223       1.819821
                                                         0.791502      -0.999069
                                                         0.239116       0.017430
                                                         0.082193       0.082660

                          1       3    3px              10.068468       0.155326
                                                         2.680223       0.367157
                                                         0.791502       0.311480
                                                         0.239116       0.080105
                                                         0.082193       0.033440
                          1       3    3py              10.068468       0.155326
                                                         2.680223       0.367157
                                                         0.791502       0.311480
                                                         0.239116       0.080105
                                                         0.082193       0.033440
                          1       3    3pz              10.068468       0.155326
                                                         2.680223       0.367157
                                                         0.791502       0.311480
                                                         0.239116       0.080105
                                                         0.082193       0.033440

     Auxiliary Fit Basis Set                                               cFIT3

       Number of orbital shell sets:                                           2
       Number of orbital shells:                                               2
       Number of primitive Cartesian functions:                                3
       Number of Cartesian basis functions:                                    2
       Number of spherical basis functions:                                    2
       Norm type:                                                              2

       Normalised Cartesian orbitals:

                        Set   Shell   Orbital            Exponent    Coefficient

                          1       1    1s                0.113290       0.139173

                          2       1    1s                0.551250       0.404894
                                                         3.585030       0.334062

       Atomic covalent radius [Angstrom]:                                  0.320

       Atomic van der Waals radius [Angstrom]:                             1.090

     GTH Potential information for                                       GTH-PBE

       Description:                       Goedecker-Teter-Hutter pseudopotential
                                           Goedecker et al., PRB 54, 1703 (1996)
                                          Hartwigsen et al., PRB 58, 3641 (1998)
                                                      Krack, TCA 114, 145 (2005)

       Gaussian exponent of the core charge distribution:              12.500000
       Electronic configuration (s p d ...):                                   1

       Parameters of the local part of the GTH pseudopotential:

                          rloc        C1          C2          C3          C4
                        0.200000   -4.178900    0.724463

  3. Atomic kind: Ge                                    Number of atoms:      32

     Orbital Basis Set                                     DZVP-MOLOPT-SR-GTH-q4

       Number of orbital shell sets:                                           1
       Number of orbital shells:                                               5
       Number of primitive Cartesian functions:                                4
       Number of Cartesian basis functions:                                   14
       Number of spherical basis functions:                                   13
       Norm type:                                                              2

       Normalised Cartesian orbitals:

                        Set   Shell   Orbital            Exponent    Coefficient

                          1       1    2s                3.751626      -0.120003
                                                         1.419172       0.428185
                                                         0.322428      -0.228255
                                                         0.110740      -0.068975

                          1       2    3s                3.751626       0.273885
                                                         1.419172      -0.836040
                                                         0.322428       0.584240
                                                         0.110740      -0.261045

                          1       3    3px               3.751626       0.064521
                                                         1.419172       0.216179
                                                         0.322428      -0.253385
                                                         0.110740      -0.035002
                          1       3    3py               3.751626       0.064521
                                                         1.419172       0.216179
                                                         0.322428      -0.253385
                                                         0.110740      -0.035002
                          1       3    3pz               3.751626       0.064521
                                                         1.419172       0.216179
                                                         0.322428      -0.253385
                                                         0.110740      -0.035002

                          1       4    4px               3.751626      -0.201632
                                                         1.419172      -0.391570
                                                         0.322428       0.486065
                                                         0.110740      -0.127990
                          1       4    4py               3.751626      -0.201632
                                                         1.419172      -0.391570
                                                         0.322428       0.486065
                                                         0.110740      -0.127990
                          1       4    4pz               3.751626      -0.201632
                                                         1.419172      -0.391570
                                                         0.322428       0.486065
                                                         0.110740      -0.127990

                          1       5    4dx2              3.751626      -0.158822
                                                         1.419172       0.193543
                                                         0.322428       0.178643
                                                         0.110740       0.009408
                          1       5    4dxy              3.751626      -0.275088
                                                         1.419172       0.335227
                                                         0.322428       0.309418
                                                         0.110740       0.016296
                          1       5    4dxz              3.751626      -0.275088
                                                         1.419172       0.335227
                                                         0.322428       0.309418
                                                         0.110740       0.016296
                          1       5    4dy2              3.751626      -0.158822
                                                         1.419172       0.193543
                                                         0.322428       0.178643
                                                         0.110740       0.009408
                          1       5    4dyz              3.751626      -0.275088
                                                         1.419172       0.335227
                                                         0.322428       0.309418
                                                         0.110740       0.016296
                          1       5    4dz2              3.751626      -0.158822
                                                         1.419172       0.193543
                                                         0.322428       0.178643
                                                         0.110740       0.009408

     Auxiliary Fit Basis Set                                               cFIT6

       Number of orbital shell sets:                                           4
       Number of orbital shells:                                               4
       Number of primitive Cartesian functions:                                6
       Number of Cartesian basis functions:                                    8
       Number of spherical basis functions:                                    8
       Norm type:                                                              2

       Normalised Cartesian orbitals:

                        Set   Shell   Orbital            Exponent    Coefficient

                          1       1    1s                0.110750       0.136826

                          2       1    1s                0.308366      -0.415436
                                                         1.178430       0.610195

                          3       1    1px               0.110745       0.091064
                          3       1    1py               0.110745       0.091064
                          3       1    1pz               0.110745       0.091064

                          4       1    1px               0.339941       0.397306
                                                         1.591237      -0.423312
                          4       1    1py               0.339941       0.397306
                                                         1.591237      -0.423312
                          4       1    1pz               0.339941       0.397306
                                                         1.591237      -0.423312

       Atomic covalent radius [Angstrom]:                                  1.220

       Atomic van der Waals radius [Angstrom]:                             2.110

     GTH Potential information for                                       GTH-PBE

       Description:                       Goedecker-Teter-Hutter pseudopotential
                                           Goedecker et al., PRB 54, 1703 (1996)
                                          Hartwigsen et al., PRB 58, 3641 (1998)
                                                      Krack, TCA 114, 145 (2005)

       Gaussian exponent of the core charge distribution:               1.714678
       Electronic configuration (s p d ...):                               2   2

       Parameters of the local part of the GTH pseudopotential:

                          rloc        C1          C2          C3          C4
                        0.540000

       Parameters of the non-local part of the GTH pseudopotential:

                   l      r(l)      h(i,j,l)

                   0    0.421865    7.510241   -0.588108   -1.447976
                                   -0.588108   -1.595888    3.738657
                                   -1.447976    3.738657   -2.967467
                   1    0.567529    0.913860    0.546875
                                    0.546875   -0.647072
                   2    0.813914    0.197177


 MOLECULE KIND INFORMATION


 All atoms are their own molecule, skipping detailed information


 TOTAL NUMBERS AND MAXIMUM NUMBERS

  Total number of            - Atomic kinds:                                   3
                             - Atoms:                                        128
                             - Shell sets:                                   128
                             - Shells:                                       512
                             - Primitive Cartesian functions:                576
                             - Cartesian basis functions:                   1216
                             - Spherical basis functions:                   1152

  Maximum angular momentum of- Orbital basis functions:                        2
                             - Local part of the GTH pseudopotential:          2
                             - Non-local part of the GTH pseudopotential:      4

  AUX_FIT ADMM-Basis: 
  Total number of            - Shell sets:                                   384
                             - Shells:                                       384
                             - Primitive Cartesian functions:                576
                             - Cartesian basis functions:                    640
                             - Spherical basis functions:                    640
                               Maximum angular momentum                        1


 MODULE QUICKSTEP:  ATOMIC COORDINATES IN angstrom

 Atom  Kind  Element       X           Y           Z          Z(eff)       Mass
    1   1 Si  14       0.279457    2.349920    1.858021       4.0000     28.0855
    2   1 Si  14       2.213530    1.112858    2.348764       4.0000     28.0855
    3   1 Si  14       4.059111    2.258970    1.535712       4.0000     28.0855
    4   1 Si  14       6.010330    1.163509    2.342867       4.0000     28.0855
    5   1 Si  14      -1.873851    5.690921    1.863610       4.0000     28.0855
    6   1 Si  14       0.084744    4.524838    2.655250       4.0000     28.0855
    7   1 Si  14       1.975672    5.812680    1.834594       4.0000     28.0855
    8   1 Si  14       4.092801    4.598788    2.328978       4.0000     28.0855
    9   2 H    1       0.547320    2.518242    0.428527       1.0000      1.0079
   10   2 H    1       2.313586    0.901164    3.806622       1.0000      1.0079
   11   2 H    1       1.805182    3.469926    5.340269       1.0000      1.0079
   12   2 H    1       3.671484    2.309021    8.962869       1.0000      1.0079
   13   2 H    1       4.054132    2.304499    0.043420       1.0000      1.0079
   14   2 H    1       5.722199    0.838643    3.805581       1.0000      1.0079
   15   2 H    1      -1.669275    3.505011    5.022172       1.0000      1.0079
   16   2 H    1      -0.279970    2.867961    9.270584       1.0000      1.0079
   17   2 H    1      -1.700207    5.543047    0.456585       1.0000      1.0079
   18   2 H    1       0.139524    4.480668    4.117136       1.0000      1.0079
   19   2 H    1       4.017393    0.012182    5.139287       1.0000      1.0079
   20   2 H    1       1.775811    6.037119    9.089698       1.0000      1.0079
   21   2 H    1       1.754653    5.888152    0.385927       1.0000      1.0079
   22   2 H    1       4.285018    4.406848    3.832541       1.0000      1.0079
   23   2 H    1       0.145961    0.251416    5.608190       1.0000      1.0079
   24   2 H    1      -2.265072    6.032975    8.739035       1.0000      1.0079
   25   3 Ge  32       1.865962    3.657281    6.846263       4.0000     72.6400
   26   3 Ge  32       3.875862    2.384740    7.389496       4.0000     72.6400
   27   3 Ge  32      -1.943889    3.419713    6.549062       4.0000     72.6400
   28   3 Ge  32      -0.113344    2.613080    7.803386       4.0000     72.6400
   29   3 Ge  32       3.960075    0.070296    6.657215       4.0000     72.6400
   30   3 Ge  32       1.777048    5.969633    7.564062       4.0000     72.6400
   31   3 Ge  32       0.046093    0.255930    7.154322       4.0000     72.6400
   32   3 Ge  32      -2.204031    5.778181    7.240567       4.0000     72.6400
   33   1 Si  14       8.052793    2.282767    1.778699       4.0000     28.0855
   34   1 Si  14      10.076628    1.133631    2.292376       4.0000     28.0855
   35   1 Si  14      12.175999    2.292588    1.803974       4.0000     28.0855
   36   1 Si  14      14.234923    1.206179    2.429219       4.0000     28.0855
   37   1 Si  14       6.156368    5.742785    1.658214       4.0000     28.0855
   38   1 Si  14       8.169034    4.631960    2.460076       4.0000     28.0855
   39   1 Si  14      10.039230    5.742381    1.630682       4.0000     28.0855
   40   1 Si  14      11.977986    4.551212    2.287748       4.0000     28.0855
   41   2 H    1       7.927302    2.605745    0.270246       1.0000      1.0079
   42   2 H    1       9.957524    0.989152    3.825034       1.0000      1.0079
   43   2 H    1       9.458521    3.211445    5.148195       1.0000      1.0079
   44   2 H    1      12.076739    2.040070    8.778226       1.0000      1.0079
   45   2 H    1      12.111063    2.265201    0.327640       1.0000      1.0079
   46   2 H    1      14.175950    0.848322    3.841100       1.0000      1.0079
   47   2 H    1       6.230140    3.439792    5.252241       1.0000      1.0079
   48   2 H    1       7.909475    2.364424    9.123980       1.0000      1.0079
   49   2 H    1       6.319388    5.788718    0.156508       1.0000      1.0079
   50   2 H    1       8.028271    4.704635    3.991975       1.0000      1.0079
   51   2 H    1      12.435002   -0.815416    5.328834       1.0000      1.0079
   52   2 H    1      10.145295    5.824125    8.682715       1.0000      1.0079
   53   2 H    1       9.879335    5.484901    0.144717       1.0000      1.0079
   54   2 H    1      12.008110    4.612876    3.804831       1.0000      1.0079
   55   2 H    1       7.958306    0.152319    5.153052       1.0000      1.0079
   56   2 H    1       5.873152    6.001260    8.999310       1.0000      1.0079
   57   3 Ge  32       9.974522    3.239029    6.616047       4.0000     72.6400
   58   3 Ge  32      12.110244    2.102685    7.214824       4.0000     72.6400
   59   3 Ge  32       6.071983    3.261823    6.737413       4.0000     72.6400
   60   3 Ge  32       8.062661    2.247795    7.625039       4.0000     72.6400
   61   3 Ge  32      12.208870   -0.348831    6.819387       4.0000     72.6400
   62   3 Ge  32       9.751539    5.626392    7.278897       4.0000     72.6400
   63   3 Ge  32       7.935763   -0.003512    6.688271       4.0000     72.6400
   64   3 Ge  32       5.869595    5.675660    7.496060       4.0000     72.6400
   65   1 Si  14      -3.829497    9.157742    1.496008       4.0000     28.0855
   66   1 Si  14      -1.794326    8.089267    2.310638       4.0000     28.0855
   67   1 Si  14       0.168259    9.203990    1.526310       4.0000     28.0855
   68   1 Si  14       2.231420    8.255568    2.140153       4.0000     28.0855
   69   1 Si  14      -5.851741   12.655084    1.428440       4.0000     28.0855
   70   1 Si  14      -3.933288   11.445244    2.107634       4.0000     28.0855
   71   1 Si  14      -1.800653   12.719146    1.525466       4.0000     28.0855
   72   1 Si  14       0.163293   11.554027    2.257582       4.0000     28.0855
   73   2 H    1      -4.091346    8.817102    0.009368       1.0000      1.0079
   74   2 H    1      -1.987378    8.237584    3.795805       1.0000      1.0079
   75   2 H    1      -1.643496   10.473266    5.039675       1.0000      1.0079
   76   2 H    1      -0.415556    8.882040    9.141461       1.0000      1.0079
   77   2 H    1      -0.080007    9.373724    0.105752       1.0000      1.0079
   78   2 H    1       2.101443    8.341671    3.687039       1.0000      1.0079
   79   2 H    1      -6.717779   10.532460    5.491415       1.0000      1.0079
   80   2 H    1      -3.890217    8.831885    8.666205       1.0000      1.0079
   81   2 H    1      -5.852076   12.892256   -0.082317       1.0000      1.0079
   82   2 H    1      -3.999104   11.105147    3.608305       1.0000      1.0079
   83   2 H    1       0.042317    7.560665    5.017320       1.0000      1.0079
   84   2 H    1      -2.179296   12.652839    8.836148       1.0000      1.0079
   85   2 H    1      -1.984796   12.637219   -0.024110       1.0000      1.0079
   86   2 H    1       0.239083   11.695059    3.787792       1.0000      1.0079
   87   2 H    1      -4.131257    6.642416    4.805479       1.0000      1.0079
   88   2 H    1      -5.495392   12.688059    9.184882       1.0000      1.0079
   89   3 Ge  32      -2.060359   10.305845    6.573507       4.0000     72.6400
   90   3 Ge  32      -0.253743    9.097077    7.570421       4.0000     72.6400
   91   3 Ge  32      -6.213142   10.222716    6.929924       4.0000     72.6400
   92   3 Ge  32      -4.083059    9.048993    7.177487       4.0000     72.6400
   93   3 Ge  32      -0.261051    6.985910    6.450958       4.0000     72.6400
   94   3 Ge  32      -2.037794   12.684851    7.359595       4.0000     72.6400
   95   3 Ge  32      -4.186853    6.816525    6.305234       4.0000     72.6400
   96   3 Ge  32      -5.924840   12.723736    7.716562       4.0000     72.6400
   97   1 Si  14       4.197766    9.256209    1.294520       4.0000     28.0855
   98   1 Si  14       6.047481    8.046447    2.185112       4.0000     28.0855
   99   1 Si  14       8.082942    9.040699    1.459868       4.0000     28.0855
  100   1 Si  14      10.112561    8.087397    2.262624       4.0000     28.0855
  101   1 Si  14       2.071820   12.632378    1.422522       4.0000     28.0855
  102   1 Si  14       4.209365   11.532583    1.998210       4.0000     28.0855
  103   1 Si  14       6.227793   12.662202    1.401481       4.0000     28.0855
  104   1 Si  14       8.119201   11.334921    1.968045       4.0000     28.0855
  105   2 H    1       4.046427    9.164319   -0.230497       1.0000      1.0079
  106   2 H    1       5.873757    8.277561    3.737688       1.0000      1.0079
  107   2 H    1       6.175046   10.182135    5.810833       1.0000      1.0079
  108   2 H    1       8.059740    9.117727    9.718340       1.0000      1.0079
  109   2 H    1       8.066466    8.805644   -0.067180       1.0000      1.0079
  110   2 H    1      10.079441    8.098872    3.717758       1.0000      1.0079
  111   2 H    1       1.896948   10.105172    5.355244       1.0000      1.0079
  112   2 H    1       3.545985    8.955017    9.179462       1.0000      1.0079
  113   2 H    1       1.987847   12.772635   -0.038451       1.0000      1.0079
  114   2 H    1       4.306484   11.300202    3.479906       1.0000      1.0079
  115   2 H    1       8.132856    7.582450    5.529394       1.0000      1.0079
  116   2 H    1       6.206903   12.840497    9.583752       1.0000      1.0079
  117   2 H    1       6.426407   12.922787   -0.027472       1.0000      1.0079
  118   2 H    1       8.112491   11.228574    3.501411       1.0000      1.0079
  119   2 H    1       3.927288    6.779029    5.310532       1.0000      1.0079
  120   2 H    1       2.169370   12.653226    9.014464       1.0000      1.0079
  121   3 Ge  32       6.018719   10.350054    7.394807       4.0000     72.6400
  122   3 Ge  32       7.909559    9.000591    8.233048       4.0000     72.6400
  123   3 Ge  32       1.786613   10.183378    6.921640       4.0000     72.6400
  124   3 Ge  32       3.863450    9.081054    7.712455       4.0000     72.6400
  125   3 Ge  32       7.786207    6.914766    6.829260       4.0000     72.6400
  126   3 Ge  32       6.229895   12.634255    8.016586       4.0000     72.6400
  127   3 Ge  32       3.878135    6.886929    6.856302       4.0000     72.6400
  128   3 Ge  32       2.060250   12.609509    7.485864       4.0000     72.6400




 SCF PARAMETERS         Density guess:                                   RESTART
                        --------------------------------------------------------
                        max_scf:                                              50
                        max_scf_history:                                       0
                        max_diis:                                              4
                        --------------------------------------------------------
                        eps_scf:                                        1.00E-06
                        eps_scf_history:                                0.00E+00
                        eps_diis:                                       1.00E-01
                        eps_eigval:                                     1.00E-05
                        --------------------------------------------------------
                        level_shift [a.u.]:                                 0.00
                        added MOs                                        50    0
                        --------------------------------------------------------
                        Mixing method:                            BROYDEN_MIXING
                                                charge density mixing in g-space
                        --------------------------------------------------------
                        No outer SCF

 PW_GRID| Information for grid number                                          1
 PW_GRID| Grid distributed over                                    40 processors
 PW_GRID| Real space group dimensions                                    40    1
 PW_GRID| the grid is blocked:                                                NO
 PW_GRID| Cutoff [a.u.]                                                    175.0
 PW_GRID| spherical cutoff:                                                   NO
 PW_GRID|   Bounds   1            -90      89                Points:         180
 PW_GRID|   Bounds   2            -90      89                Points:         180
 PW_GRID|   Bounds   3           -180     179                Points:         360
 PW_GRID| Volume element (a.u.^3)  0.3784E-02     Volume (a.u.^3)     44134.1676
 PW_GRID| Grid span                                                    FULLSPACE
 PW_GRID|   Distribution                         Average         Max         Min
 PW_GRID|   G-Vectors                           291600.0      291600      291600
 PW_GRID|   G-Rays                                1620.0        1620        1620
 PW_GRID|   Real Space Points                   291600.0      324000      259200

 PW_GRID| Information for grid number                                          2
 PW_GRID| Number of the reference grid                                         1
 PW_GRID| Grid distributed over                                    40 processors
 PW_GRID| Real space group dimensions                                    40    1
 PW_GRID| the grid is blocked:                                                NO
 PW_GRID| Cutoff [a.u.]                                                     58.3
 PW_GRID| spherical cutoff:                                                   NO
 PW_GRID|   Bounds   1            -54      53                Points:         108
 PW_GRID|   Bounds   2            -54      53                Points:         108
 PW_GRID|   Bounds   3           -100      99                Points:         200
 PW_GRID| Volume element (a.u.^3)  0.1892E-01     Volume (a.u.^3)     44134.1676
 PW_GRID| Grid span                                                    FULLSPACE
 PW_GRID|   Distribution                         Average         Max         Min
 PW_GRID|   G-Vectors                            58320.0       59724       57024
 PW_GRID|   G-Rays                                 540.0         553         528
 PW_GRID|   Real Space Points                    58320.0       64800       43200

 PW_GRID| Information for grid number                                          3
 PW_GRID| Number of the reference grid                                         1
 PW_GRID| Grid distributed over                                    40 processors
 PW_GRID| Real space group dimensions                                    40    1
 PW_GRID| the grid is blocked:                                                NO
 PW_GRID| Cutoff [a.u.]                                                     19.4
 PW_GRID| spherical cutoff:                                                   NO
 PW_GRID|   Bounds   1            -30      29                Points:          60
 PW_GRID|   Bounds   2            -30      29                Points:          60
 PW_GRID|   Bounds   3            -60      59                Points:         120
 PW_GRID| Volume element (a.u.^3)  0.1022         Volume (a.u.^3)     44134.1676
 PW_GRID| Grid span                                                    FULLSPACE
 PW_GRID|   Distribution                         Average         Max         Min
 PW_GRID|   G-Vectors                            10800.0       11040       10380
 PW_GRID|   G-Rays                                 180.0         184         173
 PW_GRID|   Real Space Points                    10800.0       14400        7200

 PW_GRID| Information for grid number                                          4
 PW_GRID| Number of the reference grid                                         1
 PW_GRID| Grid distributed over                                    40 processors
 PW_GRID| Real space group dimensions                                     5    8
 PW_GRID| the grid is blocked:                                                NO
 PW_GRID| Cutoff [a.u.]                                                      6.5
 PW_GRID| spherical cutoff:                                                   NO
 PW_GRID|   Bounds   1            -18      17                Points:          36
 PW_GRID|   Bounds   2            -18      17                Points:          36
 PW_GRID|   Bounds   3            -36      35                Points:          72
 PW_GRID| Volume element (a.u.^3)  0.4730         Volume (a.u.^3)     44134.1676
 PW_GRID| Grid span                                                    FULLSPACE
 PW_GRID|   Distribution                         Average         Max         Min
 PW_GRID|   G-Vectors                             2332.8        2520        2160
 PW_GRID|   G-Rays                                  64.8          70          60
 PW_GRID|   Real Space Points                     2332.8        2880        2016

 POISSON| Solver                                                        PERIODIC
 POISSON| Periodicity                                                        XYZ

 RS_GRID| Information for grid number                                          1
 RS_GRID|   Bounds   1            -90      89                Points:         180
 RS_GRID|   Bounds   2            -90      89                Points:         180
 RS_GRID|   Bounds   3           -180     179                Points:         360
 RS_GRID| Real space distribution over                                  4 groups
 RS_GRID| Real space distribution along direction                              2
 RS_GRID| Border size                                                         38
 RS_GRID| Real space distribution over                                 10 groups
 RS_GRID| Real space distribution along direction                              3
 RS_GRID| Border size                                                         38
 RS_GRID|   Distribution                         Average         Max         Min
 RS_GRID|   Planes                                 121.0         121         121
 RS_GRID|   Distribution                         Average         Max         Min
 RS_GRID|   Planes                                 112.0         112         112

 RS_GRID| Information for grid number                                          2
 RS_GRID|   Bounds   1            -54      53                Points:         108
 RS_GRID|   Bounds   2            -54      53                Points:         108
 RS_GRID|   Bounds   3           -100      99                Points:         200
 RS_GRID| Real space distribution over                                  4 groups
 RS_GRID| Real space distribution along direction                              2
 RS_GRID| Border size                                                         38
 RS_GRID| Real space distribution over                                 10 groups
 RS_GRID| Real space distribution along direction                              3
 RS_GRID| Border size                                                         38
 RS_GRID|   Distribution                         Average         Max         Min
 RS_GRID|   Planes                                 103.0         103         103
 RS_GRID|   Distribution                         Average         Max         Min
 RS_GRID|   Planes                                  96.0          96          96

 RS_GRID| Information for grid number                                          3
 RS_GRID|   Bounds   1            -30      29                Points:          60
 RS_GRID|   Bounds   2            -30      29                Points:          60
 RS_GRID|   Bounds   3            -60      59                Points:         120
 RS_GRID| Real space fully replicated
 RS_GRID| Group size                                                           1

 RS_GRID| Information for grid number                                          4
 RS_GRID|   Bounds   1            -18      17                Points:          36
 RS_GRID|   Bounds   2            -18      17                Points:          36
 RS_GRID|   Bounds   3            -36      35                Points:          72
 RS_GRID| Real space fully replicated
 RS_GRID| Group size                                                           1

  HFX_INFO| Replica ID:                                                        1
  HFX_INFO| FRACTION:                                               0.2000000000
  HFX_INFO| Interaction Potential:                                     TRUNCATED
  HFX_INFO| Cutoff Radius [angstrom]:                               6.0000000000
  HFX_INFO| EPS_SCHWARZ:                                                 1.0E-08
  HFX_INFO| EPS_SCHWARZ_FORCES                                           1.0E-06
  HFX_INFO| EPS_STORAGE_SCALING:                                         1.0E-01
  HFX_INFO| NBINS:                                                            64
  HFX_INFO| BLOCK_SIZE:                                                        2
  HFX_INFO| NUMBER_OF_SHELLS:                                               AUTO
  HFX_INFO| Number of periodic shells considered:                             -1
  HFX_INFO| Number of periodic cells considered:                              27


 Number of electrons:                                                        320
 Number of occupied orbitals:                                                160
 Number of molecular orbitals:                                               210

 Number of orbital functions:                                               1152
 Number of independent orbital functions:                                   1152

 Extrapolation method: initial_guess

 *** WARNING in qs_initial_guess.F:309 :: User requested to restart the    ***
 *** wavefunction from the file named: Diag_libra-2007-RESTART.wfn. This   ***
 *** file does not exist. Please check the existence of the file or change ***
 *** properly the value of the keyword WFN_RESTART_FILE_NAME. Calculation  ***
 *** continues using ATOMIC GUESS.                                         ***


 Atomic guess: The first density matrix is obtained in terms of atomic orbitals
               and electronic configurations assigned to each atomic kind

 Guess for atomic kind: Si

 Electronic structure
    Total number of core electrons                                         10.00
    Total number of valence electrons                                       4.00
    Total number of electrons                                              14.00
    Multiplicity                                                   not specified
    S   [  2.00  2.00] 2.00
    P   [  6.00] 2.00


 *******************************************************************************
                  Iteration          Convergence                     Energy [au]
 *******************************************************************************
                          1        0.526541E-01                  -3.659692963728
                          2        0.125823E-01                  -3.661785675622
                          3        0.408986E-04                  -3.661911567360
                          4        0.675570E-07                  -3.661911568709

 Energy components [Hartree]           Total Energy ::           -3.661911568709
                                        Band Energy ::           -0.941881516273
                                     Kinetic Energy ::            1.409736465412
                                   Potential Energy ::           -5.071648034121
                                      Virial (-V/T) ::            3.597585902439
                                        Core Energy ::           -5.690149137281
                                          XC Energy ::           -0.992569238249
                                     Coulomb Energy ::            3.020806806821
                       Total Pseudopotential Energy ::           -7.143143335066
                       Local Pseudopotential Energy ::           -8.006124475851
                    Nonlocal Pseudopotential Energy ::            0.862981140786
                                        Confinement ::            0.432577323720

 Orbital energies  State     L     Occupation   Energy[a.u.]          Energy[eV]

                       1     0          2.000      -0.357276           -9.721984

                       1     1          2.000      -0.113664           -3.092965


 Total Electron Density at R=0:                                         0.000026

 Guess for atomic kind: H

 Electronic structure
    Total number of core electrons                                          0.00
    Total number of valence electrons                                       1.00
    Total number of electrons                                               1.00
    Multiplicity                                                   not specified
    S      1.00


 *******************************************************************************
                  Iteration          Convergence                     Energy [au]
 *******************************************************************************
                          1        0.250972E-02                  -0.375256815885
                          2        0.570752E-04                  -0.375258666164
                          3        0.832405E-09                  -0.375258667122

 Energy components [Hartree]           Total Energy ::           -0.375258667122
                                        Band Energy ::           -0.076317618391
                                     Kinetic Energy ::            0.771356566341
                                   Potential Energy ::           -1.146615233463
                                      Virial (-V/T) ::            1.486491829455
                                        Core Energy ::           -0.456090715790
                                          XC Energy ::           -0.314218627334
                                     Coulomb Energy ::            0.395050676003
                       Total Pseudopotential Energy ::           -1.238482237174
                       Local Pseudopotential Energy ::           -1.238482237174
                    Nonlocal Pseudopotential Energy ::            0.000000000000
                                        Confinement ::            0.110349550431

 Orbital energies  State     L     Occupation   Energy[a.u.]          Energy[eV]

                       1     0          1.000      -0.076318           -2.076708


 Total Electron Density at R=0:                                         0.425022

 Guess for atomic kind: Ge

 Electronic structure
    Total number of core electrons                                         28.00
    Total number of valence electrons                                       4.00
    Total number of electrons                                              32.00
    Multiplicity                                                   not specified
    S   [  2.00  2.00  2.00] 2.00
    P   [  6.00  6.00] 2.00
    D   [ 10.00]


 *******************************************************************************
                  Iteration          Convergence                     Energy [au]
 *******************************************************************************
                          1        0.142224                      -3.669910672039
                          2        0.333188E-01                  -3.687823698339
                          3        0.522642E-04                  -3.688875018994
                          4        0.333285E-05                  -3.688875020047
                          5        0.154106E-05                  -3.688875020053
                          6        0.996835E-06                  -3.688875020055

 Energy components [Hartree]           Total Energy ::           -3.688875020055
                                        Band Energy ::           -0.991816616960
                                     Kinetic Energy ::            1.446010121603
                                   Potential Energy ::           -5.134885141658
                                      Virial (-V/T) ::            3.551071368687
                                        Core Energy ::           -5.696847161393
                                          XC Energy ::           -0.988567154744
                                     Coulomb Energy ::            2.996539296082
                       Total Pseudopotential Energy ::           -7.185566698510
                       Local Pseudopotential Energy ::           -7.622158091196
                    Nonlocal Pseudopotential Energy ::            0.436591392686
                                        Confinement ::            0.427094155139

 Orbital energies  State     L     Occupation   Energy[a.u.]          Energy[eV]

                       1     0          2.000      -0.391724          -10.659354

                       1     1          2.000      -0.104184           -2.834997


 Total Electron Density at R=0:                                         0.000078
 Re-scaling the density matrix to get the right number of electrons
                  # Electrons              Trace(P)               Scaling factor
                          320               320.000                        1.000


 SCF WAVEFUNCTION OPTIMIZATION

  Step     Update method      Time    Convergence         Total energy    Change
  ------------------------------------------------------------------------------

  HFX_MEM_INFO| Est. max. program size before HFX [MiB]:                     518

 *** WARNING in hfx_energy_potential.F:591 :: The Kohn Sham matrix is not  ***
 *** 100% occupied. This may result in incorrect Hartree-Fock results. Try ***
 *** to decrease EPS_PGF_ORB and EPS_FILTER_MATRIX in the QS section. For  ***
 *** more information see FAQ: https://www.cp2k.org/faq:hfx_eps_warning    ***

  HFX_MEM_INFO| Number of cart. primitive ERI's calculated:          16124640079
  HFX_MEM_INFO| Number of sph. ERI's calculated:                      4157742065
  HFX_MEM_INFO| Number of sph. ERI's stored in-core:                  4157741749
  HFX_MEM_INFO| Number of sph. ERI's stored on disk:                           0
  HFX_MEM_INFO| Number of sph. ERI's calculated on the fly:                    0
  HFX_MEM_INFO| Total memory consumption ERI's RAM [MiB]:                   6533
  HFX_MEM_INFO| Whereof max-vals [MiB]:                                      278
  HFX_MEM_INFO| Total compression factor ERI's RAM:                         4.86
  HFX_MEM_INFO| Total memory consumption ERI's disk [MiB]:                     0
  HFX_MEM_INFO| Total compression factor ERI's disk:                        0.00
  HFX_MEM_INFO| Size of density/Fock matrix [MiB]:                             2
  HFX_MEM_INFO| Size of buffers [MiB]:                                         1
  HFX_MEM_INFO| Number of periodic image cells considered:                    27
  HFX_MEM_INFO| Est. max. program size after HFX  [MiB]:                     683

     1 NoMix/Diag. 0.30E+00   46.9     1.30101431      -266.0357857248 -2.66E+02
     2 Broy./Diag. 0.30E+00    6.4     0.66326388      -276.8564474244 -1.08E+01
     3 Broy./Diag. 0.30E+00    6.2     0.43491332      -281.8075185357 -4.95E+00
     4 Broy./Diag. 0.30E+00    6.3     0.08710909      -284.5915290170 -2.78E+00
     5 Broy./Diag. 0.30E+00    6.6     0.03379298      -286.3611993664 -1.77E+00
     6 Broy./Diag. 0.30E+00    6.2     0.01685370      -287.4254530480 -1.06E+00
     7 Broy./Diag. 0.30E+00    6.5     0.00638107      -287.8031396714 -3.78E-01
     8 Broy./Diag. 0.30E+00    6.2     0.00833629      -287.7799224809  2.32E-02
     9 Broy./Diag. 0.30E+00    6.5     0.00638814      -287.8434731591 -6.36E-02
    10 Broy./Diag. 0.30E+00    6.4     0.00776643      -287.8541534866 -1.07E-02
    11 Broy./Diag. 0.30E+00    6.3     0.00486627      -287.8417600658  1.24E-02
    12 Broy./Diag. 0.30E+00    6.5     0.00317024      -287.9090964912 -6.73E-02
    13 Broy./Diag. 0.30E+00    6.3     0.00142261      -287.9531441958 -4.40E-02
    14 Broy./Diag. 0.30E+00    6.6     0.00149875      -287.9539013222 -7.57E-04
    15 Broy./Diag. 0.30E+00    6.3     0.00067804      -287.9570768759 -3.18E-03
    16 Broy./Diag. 0.30E+00    6.6     0.00107113      -287.9512734268  5.80E-03
    17 Broy./Diag. 0.30E+00    6.3     0.00048922      -287.9493243567  1.95E-03
    18 Broy./Diag. 0.30E+00    6.3     0.00033184      -287.9462189717  3.11E-03
    19 Broy./Diag. 0.30E+00    6.5     0.00026490      -287.9475785950 -1.36E-03
    20 Broy./Diag. 0.30E+00    6.3     0.00011594      -287.9525232854 -4.94E-03
    21 Broy./Diag. 0.30E+00    6.5     0.00008177      -287.9542253670 -1.70E-03
    22 Broy./Diag. 0.30E+00    6.3     0.00005741      -287.9538106058  4.15E-04
    23 Broy./Diag. 0.30E+00    6.9     0.00007681      -287.9538003779  1.02E-05
    24 Broy./Diag. 0.30E+00    6.4     0.00005338      -287.9541173536 -3.17E-04
    25 Broy./Diag. 0.30E+00    6.6     0.00002527      -287.9545444434 -4.27E-04
    26 Broy./Diag. 0.30E+00    6.3     0.00002137      -287.9546458339 -1.01E-04
    27 Broy./Diag. 0.30E+00    6.3     0.00003538      -287.9551101621 -4.64E-04
    28 Broy./Diag. 0.30E+00    6.6     0.00001445      -287.9553741320 -2.64E-04
    29 Broy./Diag. 0.30E+00    6.3     0.00001318      -287.9556980805 -3.24E-04
    30 Broy./Diag. 0.30E+00    6.5     0.00001434      -287.9558298520 -1.32E-04
    31 Broy./Diag. 0.30E+00    6.3     0.00001249      -287.9555730817  2.57E-04
    32 Broy./Diag. 0.30E+00    6.6     0.00000672      -287.9555234144  4.97E-05
    33 Broy./Diag. 0.30E+00    6.3     0.00000640      -287.9555382449 -1.48E-05
    34 Broy./Diag. 0.30E+00    6.3     0.00000133      -287.9555399484 -1.70E-06
    35 Broy./Diag. 0.30E+00    6.5     0.00000269      -287.9555622487 -2.23E-05
    36 Broy./Diag. 0.30E+00    6.3     0.00000146      -287.9555863417 -2.41E-05
    37 Broy./Diag. 0.30E+00    6.5     0.00000073      -287.9556041564 -1.78E-05

  *** SCF run converged in    37 steps ***


  Electronic density on regular grids:       -319.9999999982        0.0000000018
  Core density on regular grids:              319.9999999279       -0.0000000721
  Total charge density on r-space grids:       -0.0000000703
  Total charge density g-space grids:          -0.0000000703

  Overlap energy of the core charge distribution:               0.00002362131620
  Self energy of the core charge distribution:               -685.99374549079380
  Core Hamiltonian energy:                                    163.79604597204519
  Hartree energy:                                             331.68279627907879
  Exchange-correlation energy:                                -79.82420590076860
  Hartree-Fock Exchange energy:                               -17.16895350613656
  Dispersion energy:                                           -0.44756513115513

  Total energy:                                              -287.95560415641393

   Calculate PDOS at iteration step                                  0

              ---- PDOS: start iteration on the KS states --- 

 *******************************************************************************
 **                                                                           **
 **         ######## #######   #######   ######## #######  ########           **
 **            ##    ##     ## ##     ## ##       ##   ##     ##              **
 **            ##    ##     ## ##     ## ######   #######     ##              **
 **            ##    ##     ## ##     ## ##       ##          ##              **
 **            ##    #######   #######   ##       ##          ##              **
 **                                                                           **
 *******************************************************************************
 
 -------------------------------------------------------------------------------
 -                            TDDFPT Initial Guess                             -
 -------------------------------------------------------------------------------
          State         Occupied      ->      Virtual          Excitation
          number         orbital              orbital          energy (eV)
 -------------------------------------------------------------------------------
             1              160                  161              1.91615
             2              159                  161              2.04004
             3              160                  162              2.07231
             4              160                  163              2.12748
             5              160                  164              2.18773
             6              159                  162              2.19620
             7              159                  163              2.25136
             8              160                  165              2.25838
             9              159                  164              2.31161
            10              159                  165              2.38226
            11              160                  166              2.45958
            12              160                  167              2.51532
            13              160                  168              2.56124
            14              159                  166              2.58346
            15              160                  169              2.60311
            16              159                  167              2.63921
            17              160                  170              2.64538
            18              160                  171              2.66737
            19              159                  168              2.68513
            20              160                  172              2.70000

      Number of active states:                                     158720
 -------------------------------------------------------------------------------
 
 -------------------------------------------------------------------------------
 -                      TDDFPT WAVEFUNCTION OPTIMIZATION                       -
 -------------------------------------------------------------------------------

          Step            Time         Convergence           Conv. states
 -------------------------------------------------------------------------------

    State    Exc. energy (eV)      Convergence (eV)
        1       1.6420079            -2.7414E-01
        2       1.7632477            -2.7679E-01
        3       1.8894015            -1.8291E-01
        4       2.0164893            -1.1099E-01
        5       2.0412723            -1.4646E-01
        6       2.0789612            -1.1724E-01
        7       2.1507186            -1.0064E-01
        8       2.1713602            -8.7018E-02
        9       2.2102806            -1.0133E-01
       10       2.2485460            -1.3372E-01
       11       2.2853305            -1.7425E-01
       12       2.3001999            -2.1512E-01
       13       2.3835444            -1.7770E-01
       14       2.3959918            -1.8747E-01
       15       2.4392002            -1.6391E-01
       16       2.4981834            -1.4102E-01
       17       2.5185194            -1.2686E-01
       18       2.5597623            -1.0760E-01
       19       2.5711798            -1.1395E-01
       20       2.6058817            -9.4119E-02

             1           123.2          1.0172E-02                      0

    State    Exc. energy (eV)      Convergence (eV)
        1       1.6047003            -3.7308E-02
        2       1.7238496            -3.9398E-02
        3       1.8835919            -5.8096E-03
        4       2.0102321            -6.2571E-03
        5       2.0289766            -1.2296E-02
        6       2.0631525            -1.5809E-02
        7       2.1330718            -1.7647E-02
        8       2.1620653            -9.2950E-03
        9       2.1881065            -2.2174E-02
       10       2.2202894            -2.8257E-02
       11       2.2634385            -2.1892E-02
       12       2.2656737            -3.4526E-02
       13       2.3557159            -2.7828E-02
       14       2.3787787            -1.7213E-02
       15       2.4298882            -9.3120E-03
       16       2.4364410            -6.1742E-02
       17       2.4526909            -6.5829E-02
       18       2.5121923            -4.7570E-02
       19       2.5391080            -3.2072E-02
       20       2.5690381            -3.6844E-02

             2           124.0          2.4192E-03                      0

    State    Exc. energy (eV)      Convergence (eV)
        1       1.5981314            -6.5689E-03
        2       1.7167857            -7.0639E-03
        3       1.8831253            -4.6660E-04
        4       2.0096803            -5.5179E-04
        5       2.0276231            -1.3535E-03
        6       2.0611965            -1.9560E-03
        7       2.1304274            -2.6444E-03
        8       2.1603067            -1.7586E-03
        9       2.1840132            -4.0932E-03
       10       2.2164304            -3.8590E-03
       11       2.2556948            -7.7437E-03
       12       2.2606822            -4.9915E-03
       13       2.3513915            -4.3244E-03
       14       2.3662198            -1.2559E-02
       15       2.3840055            -4.5883E-02
       16       2.4113130            -2.5128E-02
       17       2.4343863            -1.8305E-02
       18       2.4710940            -4.1098E-02
       19       2.5051672            -3.3941E-02
       20       2.5282197            -4.0818E-02

             3           123.7          1.6862E-03                      0

    State    Exc. energy (eV)      Convergence (eV)
        1       1.5976365            -4.9496E-04
[...]
 flops     5 x    18 x    13             19169280       0.0%    100.0%      0.0%
 flops     8 x     2 x    18             41537088       0.0%    100.0%      0.0%
 flops     2 x     8 x    18             41750208       0.0%    100.0%      0.0%
 flops    13 x    18 x    13             49840128       0.0%    100.0%      0.0%
 flops     5 x     5 x    18             70999200       0.0%    100.0%      0.0%
 flops     5 x     1 x     5             71540000       0.0%    100.0%      0.0%
 flops     2 x     2 x    32            103093248       0.0%    100.0%      0.0%
 flops     8 x     8 x    18            177315840       0.0%    100.0%      0.0%
 flops     5 x    13 x    18            182108160       0.0%    100.0%      0.0%
 flops    13 x     5 x    18            182108160       0.0%    100.0%      0.0%
 flops     5 x     1 x    13            186368000       0.0%    100.0%      0.0%
 flops    13 x     1 x     5            186368000       0.0%    100.0%      0.0%
 flops   283 x   111 x    32            402086400       0.0%    100.0%      0.0%
 flops   286 x   111 x    32            406348800       0.0%    100.0%      0.0%
 flops   288 x   111 x    32            409190400       0.0%    100.0%      0.0%
 flops   295 x   111 x    32            419136000       0.0%    100.0%      0.0%
 flops     8 x     2 x    32            443062272       0.0%    100.0%      0.0%
 flops     2 x     8 x    32            445335552       0.0%    100.0%      0.0%
 flops    13 x    13 x    18            480879360       0.0%    100.0%      0.0%
 flops    13 x     1 x    13            484556800       0.0%    100.0%      0.0%
 flops     5 x     5 x    32            757324800       0.0%    100.0%      0.0%
 flops   283 x   113 x    32           1227993600       0.0%    100.0%      0.0%
 flops   286 x   113 x    32           1241011200       0.0%    100.0%      0.0%
 flops   288 x   113 x    32           1249689600       0.0%    100.0%      0.0%
 flops   283 x   116 x    32           1260595200       0.0%    100.0%      0.0%
 flops   286 x   116 x    32           1273958400       0.0%    100.0%      0.0%
 flops   295 x   113 x    32           1280064000       0.0%    100.0%      0.0%
 flops   283 x   118 x    32           1282329600       0.0%    100.0%      0.0%
 flops   288 x   116 x    32           1282867200       0.0%    100.0%      0.0%
 flops   286 x   118 x    32           1295923200       0.0%    100.0%      0.0%
 flops   288 x   118 x    32           1304985600       0.0%    100.0%      0.0%
 flops   295 x   116 x    32           1314048000       0.0%    100.0%      0.0%
 flops   295 x   118 x    32           1336704000       0.0%    100.0%      0.0%
 flops     8 x     8 x    32           1891368960       0.0%    100.0%      0.0%
 flops     5 x    13 x    32           1942487040       0.0%    100.0%      0.0%
 flops    13 x     5 x    32           1942487040       0.0%    100.0%      0.0%
 flops    13 x    13 x    32           5129379840       0.0%    100.0%      0.0%
 flops     2 x    32 x     2           7226081280       0.0%    100.0%      0.0%
 flops     5 x    32 x     5          30735219200       0.0%    100.0%      0.0%
 flops     2 x    32 x     8          31694192640       0.0%    100.0%      0.0%
 flops     8 x    32 x     2          31694192640       0.0%    100.0%      0.0%
 flops     5 x    32 x    13          80067952640       0.0%    100.0%      0.0%
 flops    13 x    32 x     5          80067952640       0.0%    100.0%      0.0%
 flops     8 x    32 x     8         132875550720       0.0%    100.0%      0.0%
 flops    13 x    32 x    13         208176676864       0.0%    100.0%      0.0%
 flops inhomo. stacks                           0       0.0%      0.0%      0.0%
 flops total                       634.390021E+09       0.0%    100.0%      0.0%
 flops max/rank                     26.968483E+09       0.0%    100.0%      0.0%
 matmuls inhomo. stacks                         0       0.0%      0.0%      0.0%
 matmuls total                          209508846       0.0%    100.0%      0.0%
 number of processed stacks               2398880       0.0%    100.0%      0.0%
 average stack size                                     0.0      87.3       0.0
 marketing flops                   645.727650E+09
 -------------------------------------------------------------------------------
 # multiplications                           1614
 max memory usage/rank             868.929536E+06
 # max total images/rank                        5
 # max 3D layers                                1
 # MPI messages exchanged                 2130480
 MPI messages size (bytes):
  total size                       138.690527E+09
  min size                           0.000000E+00
  max size                         176.800000E+03
  average size                      65.098254E+03
 MPI breakdown and total messages size (bytes):
             size <=      128              570810                        0
       128 < size <=     8192               21060                 10136448
      8192 < size <=    32768              422802               8068246272
     32768 < size <=   131072              655368              64842082704
    131072 < size <=  4194304              460440              65759119920
   4194304 < size <= 16777216                   0                        0
  16777216 < size                               0                        0
 -------------------------------------------------------------------------------

 *** WARNING in dbcsr_mm.F:294 :: Using a non-square number of MPI ranks ***
 *** might lead to poor performance. Used ranks: 40 Suggested: 36 81     ***

 -------------------------------------------------------------------------------
 -                                                                             -
 -                      DBCSR MESSAGE PASSING PERFORMANCE                      -
 -                                                                             -
 -------------------------------------------------------------------------------
 ROUTINE             CALLS      AVE VOLUME [Bytes]
 MP_Bcast               49                     12.
 MP_Allreduce         5519                      8.
 MP_Alltoall         50501                  33137.
 MP_ISend           122434                  32121.
 MP_IRecv           128660                  30086.
 -------------------------------------------------------------------------------

 -------------------------------------------------------------------------------
 -                                                                             -
 -                                GRID STATISTICS                              -
 -                                                                             -
 -------------------------------------------------------------------------------
 LP    KERNEL             BACKEND                              COUNT     PERCENT
 1     collocate general  REF                                9636816      16.35%
 3     collocate general  REF                                9485357      16.10%
 3     integrate general  REF                                9412111      15.97%
 0     collocate general  REF                                7901468      13.41%
 2     collocate general  REF                                7871248      13.36%
 2     integrate general  REF                                4953932       8.41%
 4     collocate general  REF                                4851070       8.23%
 4     integrate general  REF                                4813610       8.17%
 -------------------------------------------------------------------------------

 MEMORY| Estimated peak process memory [MiB]                                 829

 -------------------------------------------------------------------------------
 ----                             MULTIGRID INFO                            ----
 -------------------------------------------------------------------------------
 count for grid        1:         222321          cutoff [a.u.]          175.00
 count for grid        2:         200160          cutoff [a.u.]           58.33
 count for grid        3:         186239          cutoff [a.u.]           19.44
 count for grid        4:          73838          cutoff [a.u.]            6.48
 total gridlevel count  :         682558

 -------------------------------------------------------------------------------
 -                                                                             -
 -                         MESSAGE PASSING PERFORMANCE                         -
 -                                                                             -
 -------------------------------------------------------------------------------

 ROUTINE             CALLS      AVE VOLUME [Bytes]
 MP_Group                4
 MP_Bcast              665                1673575.
 MP_Allreduce        26183                    265.
 MP_Sync              1432
 MP_Alltoall          7727               10278395.
 MP_ISendRecv        80496                  63197.
 MP_Wait            161088
 MP_comm_split          70
 MP_ISend            72802                 299668.
 MP_IRecv            73622                 297433.
 MP_Recv               378                 149650.
 -------------------------------------------------------------------------------


 -------------------------------------------------------------------------------
 -                                                                             -
 -                           R E F E R E N C E S                               -
 -                                                                             -
 -------------------------------------------------------------------------------
 
 CP2K version 9.1, the CP2K developers group (2021).
 CP2K is freely available from https://www.cp2k.org/ .

 Kuehne,Thomas D.; Iannuzzi,Marcella; Del Ben,Mauro;
 Rybkin,Vladimir V.; Seewald,Patrick; Stein,Frederick; Laino,Teodoro;
 Khaliullin,Rustam Z.; Schuett,Ole; Schiffmann,Florian; Golze,Dorothea;
 Wilhelm,Jan; Chulkov,Sergey; Bani-Hashemian,Mohammad Hossein;
 Weber,Valery; Borstnik,Urban; Taillefumier,Mathieu;
 Jakobovits,Alice Shoshana; Lazzaro,Alfio; Pabst,Hans; Mueller,Tiziano;
 Schade,Robert; Guidon,Manuel; Andermatt,Samuel; Holmberg,Nico;
 Schenter,Gregory K.; Hehn,Anna; Bussy,Augustin; Belleflamme,Fabian;
 Tabacchi,Gloria; Gloess,Andreas; Lass,Michael; Bethune,Iain;
 Mundy,Christopher J.; Plessl,Christian; Watkins,Matt;
 VandeVondele,Joost; Krack,Matthias; Hutter,Juerg. 
 The Journal of Chemical Physics, 152 (19), (2020). 
 CP2K: An electronic structure and molecular dynamics software package -
 Quickstep: Efficient and accurate electronic structure calculations.
 https://doi.org/10.1063/5.0007045

 Goerigk, Lars; Hansen, Andreas; Bauer, Christoph; Ehrlich, Stephan;
 Najibi, Asim; Grimme, Stefan. , 19 (48), (2017). 
 A look at the density functional theory zoo with the advanced GMTKN55 database
 for general main group thermochemistry, kinetics and noncovalent interactions.
 https://doi.org/10.1039/C7CP04913G

 Schuett, Ole; Messmer, Peter; Hutter, Juerg; VandeVondele, Joost. 
 Electronic Structure Calculations on Graphics Processing Units, John
 Wiley & Sons, Ltd, 173-190 (2016). 
 GPU-Accelerated Sparse Matrix-Matrix Multiplication for
 Linear Scaling Density Functional Theory.
 https://doi.org/10.1002/9781118670712.ch8

 Heinecke, A; Henry, G; Hutchinson, M; Pabst, H. 
 Proceedings of Intl. Supercomputing Conference, 981-991 (2016). 
 LIBXSMM: Accelerating Small Matrix Multiplications
 by Runtime Code Generation.
 https://doi.org/10.1109/SC.2016.83

 Borstnik, U; VandeVondele, J; Weber, V; Hutter, J. 
 PARALLEL COMPUTING, 40 (5-6), 47-58 (2014). 
 Sparse matrix multiplication: The distributed block-compressed sparse
 row library.
 https://doi.org/10.1016/j.parco.2014.03.012

 Hutter, J; Iannuzzi, M; Schiffmann, F; VandeVondele, J. 
 WIREs Comput Mol Sci., 4 (1), 15-25 (2014). 
 CP2K: atomistic simulations of condensed matter systems.
 https://doi.org/10.1002/wcms.1159

 Grimme, S; Ehrlich, S; Goerigk, L. 
 JOURNAL OF COMPUTATIONAL CHEMISTRY, 32, 1456 (2011). 
 Effect of the damping function in dispersion corrected density functional theory.
 https://doi.org/10.1002/jcc.21759

 Guidon, M; Hutter, J; VandeVondele, J. 
 JOURNAL OF CHEMICAL THEORY AND COMPUTATION, 6 (8), 2348-2364 (2010). 
 Auxiliary Density Matrix Methods for Hartree-Fock Exchange Calculations.
 https://doi.org/10.1021/ct1002225

 Grimme, S; Antony, J; Ehrlich, S; Krieg, H. 
 JOURNAL OF CHEMICAL PHYSICS, 132 (15), 154104 (2010). 
 A consistent and accurate ab initio parametrization of density
 functional dispersion correction (DFT-D) for the 94 elements H-Pu.
 https://doi.org/10.1063/1.3382344

 Guidon, M; Hutter, J; VandeVondele, J. 
 JOURNAL OF CHEMICAL THEORY AND COMPUTATION, 5 (11), 3010-3021 (2009). 
 Robust Periodic Hartree-Fock Exchange for Large-Scale Simulations Using
 Gaussian Basis Sets.
 https://doi.org/10.1021/ct900494g

 Guidon, M; Schiffmann, F; Hutter, J; VandeVondele, J. 
 JOURNAL OF CHEMICAL PHYSICS, 128 (21), 214104 (2008). 
 Ab initio molecular dynamics using hybrid density functionals.
 https://doi.org/10.1063/1.2931945

 VandeVondele, J; Hutter, J. 
 JOURNAL OF CHEMICAL PHYSICS, 127 (11), 114105 (2007). 
 Gaussian basis sets for accurate calculations on molecular systems in
 gas and condensed phases.
 https://doi.org/10.1063/1.2770708

 Krack, M. 
 THEORETICAL CHEMISTRY ACCOUNTS, 114 (1-3), 145-152 (2005). 
 Pseudopotentials for H to Kr optimized for gradient-corrected
 exchange-correlation functionals.
 https://doi.org/10.1007/s00214-005-0655-y

 VandeVondele, J; Krack, M; Mohamed, F; Parrinello, M; Chassaing, T;
 Hutter, J. COMPUTER PHYSICS COMMUNICATIONS, 167 (2), 103-128 (2005). 
 QUICKSTEP: Fast and accurate density functional calculations using a
 mixed Gaussian and plane waves approach.
 https://doi.org/10.1016/j.cpc.2004.12.014

 Frigo, M; Johnson, SG. 
 PROCEEDINGS OF THE IEEE, 93 (2), 216-231 (2005). 
 The design and implementation of FFTW3.
 https://doi.org/10.1109/JPROC.2004.840301

 Iannuzzi, M; Chassaing, T; Wallman, T; Hutter, J. 
 CHIMIA, 59 (7-8), 499-503 (2005). 
 Ground and excited state density functional calculations with the
 Gaussian and augmented-plane-wave method.
 https://doi.org/10.2533/000942905777676164

 Martin,Richard L.. 
 The Journal of Chemical Physics, 118 (11), 4775-4777 (2003). 
 Natural transition orbitals.
 https://doi.org/10.1063/1.1558471

 Hartwigsen, C; Goedecker, S; Hutter, J. 
 PHYSICAL REVIEW B, 58 (7), 3641-3662 (1998). 
 Relativistic separable dual-space Gaussian pseudopotentials from H to Rn.
 https://doi.org/10.1103/PhysRevB.58.3641

 Lippert, G; Hutter, J; Parrinello, M. 
 MOLECULAR PHYSICS, 92 (3), 477-487 (1997). 
 A hybrid Gaussian and plane wave density functional scheme.
 https://doi.org/10.1080/002689797170220

 Goedecker, S; Teter, M; Hutter, J. 
 PHYSICAL REVIEW B, 54 (3), 1703-1710 (1996). 
 Separable dual-space Gaussian pseudopotentials.
 https://doi.org/10.1103/PhysRevB.54.1703

 BECKE, AD. PHYSICAL REVIEW A, 38 (6), 3098-3100 (1988). 
 DENSITY-FUNCTIONAL EXCHANGE-ENERGY APPROXIMATION WITH CORRECT
 ASYMPTOTIC-BEHAVIOR.
 https://doi.org/10.1103/PhysRevA.38.3098

 LEE, CT; YANG, WT; PARR, RG. 
 PHYSICAL REVIEW B, 37 (2), 785-789 (1988). 
 DEVELOPMENT OF THE COLLE-SALVETTI CORRELATION-ENERGY FORMULA INTO A
 FUNCTIONAL OF THE ELECTRON-DENSITY.
 https://doi.org/10.1103/PhysRevB.37.785

 VOSKO, SH; WILK, L; NUSAIR, M. 
 CANADIAN JOURNAL OF PHYSICS, 58 (8), 1200-1211 (1980). 
 ACCURATE SPIN-DEPENDENT ELECTRON LIQUID CORRELATION ENERGIES FOR LOCAL
 SPIN-DENSITY CALCULATIONS - A CRITICAL ANALYSIS.
 https://doi.org/10.1139/p80-159


 -------------------------------------------------------------------------------
 -                                                                             -
 -                                T I M I N G                                  -
 -                                                                             -
 -------------------------------------------------------------------------------
 SUBROUTINE                       CALLS  ASD         SELF TIME        TOTAL TIME
                                MAXIMUM       AVERAGE  MAXIMUM  AVERAGE  MAXIMUM
 CP2K                                 1  1.0    0.027    0.078 1648.075 1648.083
 qs_energies                          1  2.0    0.000    0.000 1647.324 1647.332
 qs_energies_properties               1  3.0    0.000    0.000 1364.967 1364.981
 tddfpt                               1  4.0    0.000    0.001 1364.967 1364.981
 tddfpt_davidson_solver               2  5.0    0.002    0.004 1360.317 1360.324
 tddfpt_compute_Aop_evects           11  6.0    0.000    0.000 1353.106 1353.112
 integrate_four_center              257  9.0    0.321    0.694 1189.091 1189.101
 integrate_four_center_main         257 10.0    0.081    0.086 1144.702 1160.255
 integrate_four_center_bin        16448 11.0 1144.621 1160.177 1144.621 1160.177
 tddfpt_apply_hfx                    11  7.0    0.004    0.005  987.416  987.421
 tddft_hfx_matrix                   220  8.0    0.004    0.005  981.590  981.594
 fhxc_kernel                         11  7.0    0.010    0.011  364.254  364.255
 scf_env_do_scf                       1  3.0    0.000    0.000  279.837  279.848
 scf_env_do_scf_inner_loop           37  4.0    0.001    0.006  279.837  279.848
 qs_ks_update_qs_env                 37  5.0    0.000    0.000  252.088  252.090
 rebuild_ks_matrix                   37  6.0    0.000    0.000  252.077  252.079
 qs_ks_build_kohn_sham_matrix        37  7.0    0.005    0.005  252.077  252.079
 hfx_ks_matrix                       37  8.0    0.001    0.001  207.518  207.527
 calculate_rho_elec                 517  8.8    1.031    1.151  184.140  184.185
 pw_transfer                       6664 10.2    0.548    0.651  167.015  167.494
 fft_wrap_pw1pw2                   6150 11.2    0.073    0.079  165.049  165.493
 fft_wrap_pw1pw2_180               3828 12.0   14.084   15.530  157.962  158.483
 fft3d_ps                          6150 13.2   67.319   72.649  121.980  123.892
 qs_rho_update_rho                  259  7.6    0.002    0.002  107.356  107.402
 density_rs2pw                      517  9.8    0.032    0.037   96.951  104.896
 integrate_v_rspace                 257  8.1    0.008    0.009  103.934  104.497
 tddfpt_apply_xc_analytic           440  8.0    1.720    1.971  101.537  102.118
 grid_collocate_task_list           517  9.8   82.906   88.445   82.906   88.445
 rs_pw_transfer                    3097 10.6    0.041    0.049   75.626   84.526
 tddfpt_construct_aux_fit_densi     221  8.0    0.004    0.006   68.461   69.005
 xc_calc_2nd_deriv_analytical       440  9.0    5.019    5.672   67.600   67.801
 grid_integrate_task_list           257  9.1   56.969   59.780   56.969   59.780
 mp_sync                           1432 10.7   38.612   52.708   38.612   52.708
 mp_alltoall_z22v                  6150 15.2   38.026   46.959   38.026   46.959
 potential_pw2rs                    257  9.1    0.041    0.046   41.862   42.416
 rs_pw_transfer_RS2PW_180           518 11.8   18.642   20.737   32.207   40.736
 mp_waitany                       72802 12.6   21.524   33.469   21.524   33.469
 -------------------------------------------------------------------------------

 The number of warnings for this run is : 3
 
 -------------------------------------------------------------------------------
  **** **** ******  **  PROGRAM ENDED AT                 2024-11-11 10:50:11.960
 ***** ** ***  *** **   PROGRAM RAN ON            bc12016.int.ets1.calculquebec.
 **    ****   ******    PROGRAM RAN BY                                  ekadashi
 ***** **    ** ** **   PROGRAM PROCESS ID                               3093444
  **** **  *******  **  PROGRAM STOPPED IN /scratch/ekadashi/Libra_CP2K/SiGe_Het
                                           ero/step2_B3LYP/SET2/job2
