 DBCSR| CPU Multiplication driver                                           XSMM
 DBCSR| Multrec recursion limit                                              512
 DBCSR| Multiplication stack size                                           1000
 DBCSR| Maximum elements for images                                    UNLIMITED
 DBCSR| Multiplicative factor virtual images                                   1
 DBCSR| Use multiplication densification                                       T
 DBCSR| Multiplication size stacks                                             3
 DBCSR| Use memory pool for CPU allocation                                     F
 DBCSR| Number of 3D layers                                               SINGLE
 DBCSR| Use MPI memory allocation                                              F
 DBCSR| Use RMA algorithm                                                      F
 DBCSR| Use Communication thread                                               T
 DBCSR| Communication thread load                                             87
 DBCSR| MPI: My node id                                                        0
 DBCSR| MPI: Number of nodes                                                  40
 DBCSR| OMP: Current number of threads                                         1
 DBCSR| OMP: Max number of threads                                             1
 DBCSR| Split modifier for TAS multiplication algorithm                  1.0E+00


  **** **** ******  **  PROGRAM STARTED AT               2024-11-11 10:50:54.458
 ***** ** ***  *** **   PROGRAM STARTED ON        bc12016.int.ets1.calculquebec.
 **    ****   ******    PROGRAM STARTED BY                              ekadashi
 ***** **    ** ** **   PROGRAM PROCESS ID                               3108356
  **** **  *******  **  PROGRAM STARTED IN /scratch/ekadashi/Libra_CP2K/SiGe_Het
                                           ero/step2_B3LYP/SET2/job2

 CP2K| version string:                                          CP2K version 9.1
 CP2K| source code revision number:                                  git:d8d7100
 CP2K| cp2kflags: omp libint fftw3 libxc parallel mpi3 scalapack xsmm plumed2   
 CP2K| is freely available from                            https://www.cp2k.org/
 CP2K| Program compiled at                       Thu 20 Jan 2022 10:47:29 PM UTC
 CP2K| Program compiled on                           build-node.computecanada.ca
 CP2K| Program compiled for                                   Linux-x86-64-gofbf
 CP2K| Data directory path    /cvmfs/soft.computecanada.ca/easybuild/software/20
 CP2K| Input file name                                       Diag_libra-2008.inp

 GLOBAL| Force Environment number                                              1
 GLOBAL| Basis set file name                                        BASIS_MOLOPT
 GLOBAL| Potential file name                                           POTENTIAL
 GLOBAL| MM Potential file name                                     MM_POTENTIAL
 GLOBAL| Coordinate file name                                     coord-2008.xyz
 GLOBAL| Method name                                                        CP2K
 GLOBAL| Project name                                            Diag_libra-2008
 GLOBAL| Run type                                                         ENERGY
 GLOBAL| FFT library                                                       FFTW3
 GLOBAL| Diagonalization library                                       ScaLAPACK
 GLOBAL| Orthonormality check for eigenvectors                          DISABLED
 GLOBAL| Matrix multiplication library                                 ScaLAPACK
 GLOBAL| All-to-all communication in single precision                          F
 GLOBAL| FFTs using library dependent lengths                                  F
 GLOBAL| Grid backend                                                       AUTO
 GLOBAL| Global print level                                               MEDIUM
 GLOBAL| MPI I/O enabled                                                       T
 GLOBAL| Total number of message passing processes                            40
 GLOBAL| Number of threads for this process                                    1
 GLOBAL| This output is from process                                           0
 GLOBAL| Stack size for threads created by OpenMP (OMP_STACKSIZE)        default
 GLOBAL| CPU model name                 Intel(R) Xeon(R) Gold 6148 CPU @ 2.40GHz
 GLOBAL| CPUID                                                              1003

 MEMORY| system memory details [Kb]
 MEMORY|                        rank 0           min           max       average
 MEMORY| MemTotal            196639208     196639208     196639208     196639208
 MEMORY| MemFree             178340780     178340780     178340780     178340780
 MEMORY| Buffers                    76            76            76            76
 MEMORY| Cached                5345236       5345236       5345236       5345236
 MEMORY| Slab                  1540244       1540244       1540244       1540244
 MEMORY| SReclaimable           347436        347436        347436        347436
 MEMORY| MemLikelyFree       184033528     184033528     184033528     184033528


 *** Fundamental physical constants (SI units) ***

 *** Literature: B. J. Mohr and B. N. Taylor,
 ***             CODATA recommended values of the fundamental physical
 ***             constants: 2006, Web Version 5.1
 ***             http://physics.nist.gov/constants

 Speed of light in vacuum [m/s]                             2.99792458000000E+08
 Magnetic constant or permeability of vacuum [N/A**2]       1.25663706143592E-06
 Electric constant or permittivity of vacuum [F/m]          8.85418781762039E-12
 Planck constant (h) [J*s]                                  6.62606896000000E-34
 Planck constant (h-bar) [J*s]                              1.05457162825177E-34
 Elementary charge [C]                                      1.60217648700000E-19
 Electron mass [kg]                                         9.10938215000000E-31
 Electron g factor [ ]                                     -2.00231930436220E+00
 Proton mass [kg]                                           1.67262163700000E-27
 Fine-structure constant                                    7.29735253760000E-03
 Rydberg constant [1/m]                                     1.09737315685270E+07
 Avogadro constant [1/mol]                                  6.02214179000000E+23
 Boltzmann constant [J/K]                                   1.38065040000000E-23
 Atomic mass unit [kg]                                      1.66053878200000E-27
 Bohr radius [m]                                            5.29177208590000E-11

 *** Conversion factors ***

 [u] -> [a.u.]                                              1.82288848426455E+03
 [Angstrom] -> [Bohr] = [a.u.]                              1.88972613288564E+00
 [a.u.] = [Bohr] -> [Angstrom]                              5.29177208590000E-01
 [a.u.] -> [s]                                              2.41888432650478E-17
 [a.u.] -> [fs]                                             2.41888432650478E-02
 [a.u.] -> [J]                                              4.35974393937059E-18
 [a.u.] -> [N]                                              8.23872205491840E-08
 [a.u.] -> [K]                                              3.15774647902944E+05
 [a.u.] -> [kJ/mol]                                         2.62549961709828E+03
 [a.u.] -> [kcal/mol]                                       6.27509468713739E+02
 [a.u.] -> [Pa]                                             2.94210107994716E+13
 [a.u.] -> [bar]                                            2.94210107994716E+08
 [a.u.] -> [atm]                                            2.90362800883016E+08
 [a.u.] -> [eV]                                             2.72113838565563E+01
 [a.u.] -> [Hz]                                             6.57968392072181E+15
 [a.u.] -> [1/cm] (wave numbers)                            2.19474631370540E+05
 [a.u./Bohr**2] -> [1/cm]                                   5.14048714338585E+03
 

 CELL_TOP| Volume [angstrom^3]:                                      6540.008810
 CELL_TOP| Vector a [angstrom    15.928     0.000     0.000   |a| =    15.927500
 CELL_TOP| Vector b [angstrom    -7.965    13.786     0.000   |b| =    15.921700
 CELL_TOP| Vector c [angstrom    -0.000     0.000    29.784   |c| =    29.783600
 CELL_TOP| Angle (b,c), alpha [degree]:                                89.999800
 CELL_TOP| Angle (a,c), beta  [degree]:                                90.000200
 CELL_TOP| Angle (a,b), gamma [degree]:                               120.015200
 CELL_TOP| Numerically orthorhombic:                                          NO

 GENERATE|  Preliminary Number of Bonds generated:                             0
 GENERATE|  Achieved consistency in connectivity generation.

 CELL| Volume [angstrom^3]:                                          6540.008810
 CELL| Vector a [angstrom]:      15.928     0.000     0.000   |a| =    15.927500
 CELL| Vector b [angstrom]:      -7.965    13.786     0.000   |b| =    15.921700
 CELL| Vector c [angstrom]:      -0.000     0.000    29.784   |c| =    29.783600
 CELL| Angle (b,c), alpha [degree]:                                    89.999800
 CELL| Angle (a,c), beta  [degree]:                                    90.000200
 CELL| Angle (a,b), gamma [degree]:                                   120.015200
 CELL| Numerically orthorhombic:                                              NO

 CELL_REF| Volume [angstrom^3]:                                      6540.008810
 CELL_REF| Vector a [angstrom    15.928     0.000     0.000   |a| =    15.927500
 CELL_REF| Vector b [angstrom    -7.965    13.786     0.000   |b| =    15.921700
 CELL_REF| Vector c [angstrom    -0.000     0.000    29.784   |c| =    29.783600
 CELL_REF| Angle (b,c), alpha [degree]:                                89.999800
 CELL_REF| Angle (a,c), beta  [degree]:                                90.000200
 CELL_REF| Angle (a,b), gamma [degree]:                               120.015200
 CELL_REF| Numerically orthorhombic:                                          NO

 *******************************************************************************
 *******************************************************************************
 **                                                                           **
 **     #####                         ##              ##                      **
 **    ##   ##            ##          ##              ##                      **
 **   ##     ##                       ##            ######                    **
 **   ##     ##  ##   ##  ##   #####  ##  ##   ####   ##    #####    #####    **
 **   ##     ##  ##   ##  ##  ##      ## ##   ##      ##   ##   ##  ##   ##   **
 **   ##  ## ##  ##   ##  ##  ##      ####     ###    ##   ######   ######    **
 **    ##  ###   ##   ##  ##  ##      ## ##      ##   ##   ##       ##        **
 **     #######   #####   ##   #####  ##  ##  ####    ##    #####   ##        **
 **           ##                                                    ##        **
 **                                                                           **
 **                                                ... make the atoms dance   **
 **                                                                           **
 **            Copyright (C) by CP2K developers group (2000-2021)             **
 **                      J. Chem. Phys. 152, 194103 (2020)                    **
 **                                                                           **
 *******************************************************************************

 DFT| Spin restricted Kohn-Sham (RKS) calculation                            RKS
 DFT| Multiplicity                                                             1
 DFT| Number of spin states                                                    1
 DFT| Charge                                                                   0
 DFT| Self-interaction correction (SIC)                                       NO
 DFT| Cutoffs: density                                              1.000000E-10
 DFT|          gradient                                             1.000000E-10
 DFT|          tau                                                  1.000000E-10
 DFT|          cutoff_smoothing_range                               0.000000E+00
 DFT| XC density smoothing                                                  NONE
 DFT| XC derivatives                                                          PW
 FUNCTIONAL| ROUTINE=NEW
 FUNCTIONAL| BECKE88:
 FUNCTIONAL| A. Becke, Phys. Rev. A 38, 3098 (1988) {LDA version}               
 FUNCTIONAL| LYP:
 FUNCTIONAL| C. Lee, W. Yang, R.G. Parr, Phys. Rev. B, 37, 785 (1988) {LDA versi
 FUNCTIONAL| on}                                                                
 FUNCTIONAL| VWN:
 FUNCTIONAL| S. H. Vosko, L. Wilk and M. Nusair, Can. J. Phys. 58, 1200 (1980) {
 FUNCTIONAL| LDA version}                                                       
 FUNCTIONAL| XALPHA:
 FUNCTIONAL| Dirac/Slater local exchange; parameter=  0.666 {LDA}               
 vdW POTENTIAL|                                                   Pair Potential
 vdW POTENTIAL|          DFT-D3 (Version 3.1)
 vdW POTENTIAL|          Potential Form: S. Grimme et al, JCP 132: 154104 (2010)
 vdW POTENTIAL|          Zero Damping
 vdW POTENTIAL|          Cutoff Radius [Bohr]:                             20.00
 vdW POTENTIAL|          s6 Scaling Factor:                               1.0000
 vdW POTENTIAL|          sr6 Scaling Factor:                              1.2610
 vdW POTENTIAL|          s8 Scaling Factor:                               1.7030
 vdW POTENTIAL|          Cutoff for CN calculation:                   0.1000E-05

 QS| Method:                                                                 GPW
 QS| Density plane wave grid type                        NON-SPHERICAL FULLSPACE
 QS| Number of grid levels:                                                    4
 QS| Density cutoff [a.u.]:                                                175.0
 QS| Multi grid cutoff [a.u.]: 1) grid level                               175.0
 QS|                           2) grid level                                58.3
 QS|                           3) grid level                                19.4
 QS|                           4) grid level                                 6.5
 QS| Grid level progression factor:                                          3.0
 QS| Relative density cutoff [a.u.]:                                        25.0
 QS| Interaction thresholds: eps_pgf_orb:                                1.0E-05
 QS|                         eps_filter_matrix:                          0.0E+00
 QS|                         eps_core_charge:                            1.0E-12
 QS|                         eps_rho_gspace:                             1.0E-10
 QS|                         eps_rho_rspace:                             1.0E-10
 QS|                         eps_gvg_rspace:                             1.0E-05
 QS|                         eps_ppl:                                    1.0E-02
 QS|                         eps_ppnl:                                   1.0E-07


 ATOMIC KIND INFORMATION

  1. Atomic kind: Si                                    Number of atoms:      32

     Orbital Basis Set                                     DZVP-MOLOPT-SR-GTH-q4

       Number of orbital shell sets:                                           1
       Number of orbital shells:                                               5
       Number of primitive Cartesian functions:                                4
       Number of Cartesian basis functions:                                   14
       Number of spherical basis functions:                                   13
       Norm type:                                                              2

       Normalised Cartesian orbitals:

                        Set   Shell   Orbital            Exponent    Coefficient

                          1       1    2s                1.256768       0.294045
                                                         0.506394      -0.015884
                                                         0.238884      -0.207657
                                                         0.087337      -0.036225

                          1       2    3s                1.256768      -1.532347
                                                         0.506394       0.524539
                                                         0.238884       0.025013
                                                         0.087337      -0.052203

                          1       3    3px               1.256768       0.152274
                                                         0.506394      -0.154145
                                                         0.238884      -0.115581
                                                         0.087337      -0.028372
                          1       3    3py               1.256768       0.152274
                                                         0.506394      -0.154145
                                                         0.238884      -0.115581
                                                         0.087337      -0.028372
                          1       3    3pz               1.256768       0.152274
                                                         0.506394      -0.154145
                                                         0.238884      -0.115581
                                                         0.087337      -0.028372

                          1       4    4px               1.256768       0.313378
                                                         0.506394      -0.415360
                                                         0.238884      -0.022539
                                                         0.087337       0.078473
                          1       4    4py               1.256768       0.313378
                                                         0.506394      -0.415360
                                                         0.238884      -0.022539
                                                         0.087337       0.078473
                          1       4    4pz               1.256768       0.313378
                                                         0.506394      -0.415360
                                                         0.238884      -0.022539
                                                         0.087337       0.078473

                          1       5    4dx2              1.256768       0.325879
                                                         0.506394       0.163831
                                                         0.238884       0.044076
                                                         0.087337       0.010608
                          1       5    4dxy              1.256768       0.564439
                                                         0.506394       0.283764
                                                         0.238884       0.076342
                                                         0.087337       0.018373
                          1       5    4dxz              1.256768       0.564439
                                                         0.506394       0.283764
                                                         0.238884       0.076342
                                                         0.087337       0.018373
                          1       5    4dy2              1.256768       0.325879
                                                         0.506394       0.163831
                                                         0.238884       0.044076
                                                         0.087337       0.010608
                          1       5    4dyz              1.256768       0.564439
                                                         0.506394       0.283764
                                                         0.238884       0.076342
                                                         0.087337       0.018373
                          1       5    4dz2              1.256768       0.325879
                                                         0.506394       0.163831
                                                         0.238884       0.044076
                                                         0.087337       0.010608

     Auxiliary Fit Basis Set                                               cFIT3

       Number of orbital shell sets:                                           4
       Number of orbital shells:                                               4
       Number of primitive Cartesian functions:                                6
       Number of Cartesian basis functions:                                    8
       Number of spherical basis functions:                                    8
       Norm type:                                                              2

       Normalised Cartesian orbitals:

                        Set   Shell   Orbital            Exponent    Coefficient

                          1       1    1s                0.096480       0.123378

                          2       1    1s                0.246960      -0.309315
                                                         1.277560       0.429908

                          3       1    1px               0.089490       0.069768
                          3       1    1py               0.089490       0.069768
                          3       1    1pz               0.089490       0.069768

                          4       1    1px               0.295630       0.313983
                                                         2.202470      -0.124968
                          4       1    1py               0.295630       0.313983
                                                         2.202470      -0.124968
                          4       1    1pz               0.295630       0.313983
                                                         2.202470      -0.124968

       Atomic covalent radius [Angstrom]:                                  1.110

       Atomic van der Waals radius [Angstrom]:                             2.100

     GTH Potential information for                                       GTH-PBE

       Description:                       Goedecker-Teter-Hutter pseudopotential
                                           Goedecker et al., PRB 54, 1703 (1996)
                                          Hartwigsen et al., PRB 58, 3641 (1998)
                                                      Krack, TCA 114, 145 (2005)

       Gaussian exponent of the core charge distribution:               2.582645
       Electronic configuration (s p d ...):                               2   2

       Parameters of the local part of the GTH pseudopotential:

                          rloc        C1          C2          C3          C4
                        0.440000   -6.269288

       Parameters of the non-local part of the GTH pseudopotential:

                   l      r(l)      h(i,j,l)

                   0    0.435634    8.951742   -2.706271
                                   -2.706271    3.493781
                   1    0.497942    2.431277

  2. Atomic kind: H                                     Number of atoms:      64

     Orbital Basis Set                                     DZVP-MOLOPT-SR-GTH-q1

       Number of orbital shell sets:                                           1
       Number of orbital shells:                                               3
       Number of primitive Cartesian functions:                                5
       Number of Cartesian basis functions:                                    5
       Number of spherical basis functions:                                    5
       Norm type:                                                              2

       Normalised Cartesian orbitals:

                        Set   Shell   Orbital            Exponent    Coefficient

                          1       1    2s               10.068468      -0.133023
                                                         2.680223      -0.177618
                                                         0.791502      -0.258419
                                                         0.239116      -0.107525
                                                         0.082193      -0.014019

                          1       2    3s               10.068468       0.344673
                                                         2.680223       1.819821
                                                         0.791502      -0.999069
                                                         0.239116       0.017430
                                                         0.082193       0.082660

                          1       3    3px              10.068468       0.155326
                                                         2.680223       0.367157
                                                         0.791502       0.311480
                                                         0.239116       0.080105
                                                         0.082193       0.033440
                          1       3    3py              10.068468       0.155326
                                                         2.680223       0.367157
                                                         0.791502       0.311480
                                                         0.239116       0.080105
                                                         0.082193       0.033440
                          1       3    3pz              10.068468       0.155326
                                                         2.680223       0.367157
                                                         0.791502       0.311480
                                                         0.239116       0.080105
                                                         0.082193       0.033440

     Auxiliary Fit Basis Set                                               cFIT3

       Number of orbital shell sets:                                           2
       Number of orbital shells:                                               2
       Number of primitive Cartesian functions:                                3
       Number of Cartesian basis functions:                                    2
       Number of spherical basis functions:                                    2
       Norm type:                                                              2

       Normalised Cartesian orbitals:

                        Set   Shell   Orbital            Exponent    Coefficient

                          1       1    1s                0.113290       0.139173

                          2       1    1s                0.551250       0.404894
                                                         3.585030       0.334062

       Atomic covalent radius [Angstrom]:                                  0.320

       Atomic van der Waals radius [Angstrom]:                             1.090

     GTH Potential information for                                       GTH-PBE

       Description:                       Goedecker-Teter-Hutter pseudopotential
                                           Goedecker et al., PRB 54, 1703 (1996)
                                          Hartwigsen et al., PRB 58, 3641 (1998)
                                                      Krack, TCA 114, 145 (2005)

       Gaussian exponent of the core charge distribution:              12.500000
       Electronic configuration (s p d ...):                                   1

       Parameters of the local part of the GTH pseudopotential:

                          rloc        C1          C2          C3          C4
                        0.200000   -4.178900    0.724463

  3. Atomic kind: Ge                                    Number of atoms:      32

     Orbital Basis Set                                     DZVP-MOLOPT-SR-GTH-q4

       Number of orbital shell sets:                                           1
       Number of orbital shells:                                               5
       Number of primitive Cartesian functions:                                4
       Number of Cartesian basis functions:                                   14
       Number of spherical basis functions:                                   13
       Norm type:                                                              2

       Normalised Cartesian orbitals:

                        Set   Shell   Orbital            Exponent    Coefficient

                          1       1    2s                3.751626      -0.120003
                                                         1.419172       0.428185
                                                         0.322428      -0.228255
                                                         0.110740      -0.068975

                          1       2    3s                3.751626       0.273885
                                                         1.419172      -0.836040
                                                         0.322428       0.584240
                                                         0.110740      -0.261045

                          1       3    3px               3.751626       0.064521
                                                         1.419172       0.216179
                                                         0.322428      -0.253385
                                                         0.110740      -0.035002
                          1       3    3py               3.751626       0.064521
                                                         1.419172       0.216179
                                                         0.322428      -0.253385
                                                         0.110740      -0.035002
                          1       3    3pz               3.751626       0.064521
                                                         1.419172       0.216179
                                                         0.322428      -0.253385
                                                         0.110740      -0.035002

                          1       4    4px               3.751626      -0.201632
                                                         1.419172      -0.391570
                                                         0.322428       0.486065
                                                         0.110740      -0.127990
                          1       4    4py               3.751626      -0.201632
                                                         1.419172      -0.391570
                                                         0.322428       0.486065
                                                         0.110740      -0.127990
                          1       4    4pz               3.751626      -0.201632
                                                         1.419172      -0.391570
                                                         0.322428       0.486065
                                                         0.110740      -0.127990

                          1       5    4dx2              3.751626      -0.158822
                                                         1.419172       0.193543
                                                         0.322428       0.178643
                                                         0.110740       0.009408
                          1       5    4dxy              3.751626      -0.275088
                                                         1.419172       0.335227
                                                         0.322428       0.309418
                                                         0.110740       0.016296
                          1       5    4dxz              3.751626      -0.275088
                                                         1.419172       0.335227
                                                         0.322428       0.309418
                                                         0.110740       0.016296
                          1       5    4dy2              3.751626      -0.158822
                                                         1.419172       0.193543
                                                         0.322428       0.178643
                                                         0.110740       0.009408
                          1       5    4dyz              3.751626      -0.275088
                                                         1.419172       0.335227
                                                         0.322428       0.309418
                                                         0.110740       0.016296
                          1       5    4dz2              3.751626      -0.158822
                                                         1.419172       0.193543
                                                         0.322428       0.178643
                                                         0.110740       0.009408

     Auxiliary Fit Basis Set                                               cFIT6

       Number of orbital shell sets:                                           4
       Number of orbital shells:                                               4
       Number of primitive Cartesian functions:                                6
       Number of Cartesian basis functions:                                    8
       Number of spherical basis functions:                                    8
       Norm type:                                                              2

       Normalised Cartesian orbitals:

                        Set   Shell   Orbital            Exponent    Coefficient

                          1       1    1s                0.110750       0.136826

                          2       1    1s                0.308366      -0.415436
                                                         1.178430       0.610195

                          3       1    1px               0.110745       0.091064
                          3       1    1py               0.110745       0.091064
                          3       1    1pz               0.110745       0.091064

                          4       1    1px               0.339941       0.397306
                                                         1.591237      -0.423312
                          4       1    1py               0.339941       0.397306
                                                         1.591237      -0.423312
                          4       1    1pz               0.339941       0.397306
                                                         1.591237      -0.423312

       Atomic covalent radius [Angstrom]:                                  1.220

       Atomic van der Waals radius [Angstrom]:                             2.110

     GTH Potential information for                                       GTH-PBE

       Description:                       Goedecker-Teter-Hutter pseudopotential
                                           Goedecker et al., PRB 54, 1703 (1996)
                                          Hartwigsen et al., PRB 58, 3641 (1998)
                                                      Krack, TCA 114, 145 (2005)

       Gaussian exponent of the core charge distribution:               1.714678
       Electronic configuration (s p d ...):                               2   2

       Parameters of the local part of the GTH pseudopotential:

                          rloc        C1          C2          C3          C4
                        0.540000

       Parameters of the non-local part of the GTH pseudopotential:

                   l      r(l)      h(i,j,l)

                   0    0.421865    7.510241   -0.588108   -1.447976
                                   -0.588108   -1.595888    3.738657
                                   -1.447976    3.738657   -2.967467
                   1    0.567529    0.913860    0.546875
                                    0.546875   -0.647072
                   2    0.813914    0.197177


 MOLECULE KIND INFORMATION


 All atoms are their own molecule, skipping detailed information


 TOTAL NUMBERS AND MAXIMUM NUMBERS

  Total number of            - Atomic kinds:                                   3
                             - Atoms:                                        128
                             - Shell sets:                                   128
                             - Shells:                                       512
                             - Primitive Cartesian functions:                576
                             - Cartesian basis functions:                   1216
                             - Spherical basis functions:                   1152

  Maximum angular momentum of- Orbital basis functions:                        2
                             - Local part of the GTH pseudopotential:          2
                             - Non-local part of the GTH pseudopotential:      4

  AUX_FIT ADMM-Basis: 
  Total number of            - Shell sets:                                   384
                             - Shells:                                       384
                             - Primitive Cartesian functions:                576
                             - Cartesian basis functions:                    640
                             - Spherical basis functions:                    640
                               Maximum angular momentum                        1


 MODULE QUICKSTEP:  ATOMIC COORDINATES IN angstrom

 Atom  Kind  Element       X           Y           Z          Z(eff)       Mass
    1   1 Si  14       0.279487    2.348017    1.851426       4.0000     28.0855
    2   1 Si  14       2.213078    1.111714    2.349615       4.0000     28.0855
    3   1 Si  14       4.062823    2.264634    1.540006       4.0000     28.0855
    4   1 Si  14       6.010720    1.163672    2.344529       4.0000     28.0855
    5   1 Si  14      -1.872016    5.688697    1.861748       4.0000     28.0855
    6   1 Si  14       0.083307    4.522847    2.656722       4.0000     28.0855
    7   1 Si  14       1.977465    5.813996    1.837099       4.0000     28.0855
    8   1 Si  14       4.089002    4.601657    2.331572       4.0000     28.0855
    9   2 H    1       0.519889    2.557433    0.402470       1.0000      1.0079
   10   2 H    1       2.331378    0.913769    3.809911       1.0000      1.0079
   11   2 H    1       1.805153    3.449901    5.365171       1.0000      1.0079
   12   2 H    1       3.675892    2.322147    8.956619       1.0000      1.0079
   13   2 H    1       4.066042    2.301799    0.029001       1.0000      1.0079
   14   2 H    1       5.693684    0.811264    3.793703       1.0000      1.0079
   15   2 H    1      -1.653411    3.495212    5.012661       1.0000      1.0079
   16   2 H    1      -0.287601    2.861094    9.260574       1.0000      1.0079
   17   2 H    1      -1.714473    5.511143    0.434522       1.0000      1.0079
   18   2 H    1       0.156385    4.492096    4.116950       1.0000      1.0079
   19   2 H    1       4.027441    0.013912    5.121875       1.0000      1.0079
   20   2 H    1       1.771921    6.050266    9.091580       1.0000      1.0079
   21   2 H    1       1.779853    5.886486    0.393098       1.0000      1.0079
   22   2 H    1       4.281460    4.437119    3.817604       1.0000      1.0079
   23   2 H    1       0.139405    0.252671    5.623867       1.0000      1.0079
   24   2 H    1      -2.261815    6.036424    8.728395       1.0000      1.0079
   25   3 Ge  32       1.862894    3.657295    6.846127       4.0000     72.6400
   26   3 Ge  32       3.875360    2.386044    7.385622       4.0000     72.6400
   27   3 Ge  32      -1.945117    3.420988    6.551550       4.0000     72.6400
   28   3 Ge  32      -0.117405    2.611829    7.805101       4.0000     72.6400
   29   3 Ge  32       3.962208    0.073584    6.657485       4.0000     72.6400
   30   3 Ge  32       1.778611    5.966063    7.563347       4.0000     72.6400
   31   3 Ge  32       0.045150    0.253755    7.157313       4.0000     72.6400
   32   3 Ge  32      -2.203138    5.777517    7.239657       4.0000     72.6400
   33   1 Si  14       8.058829    2.286663    1.777956       4.0000     28.0855
   34   1 Si  14      10.077875    1.141002    2.293147       4.0000     28.0855
   35   1 Si  14      12.177082    2.295033    1.806378       4.0000     28.0855
   36   1 Si  14      14.232059    1.204057    2.433269       4.0000     28.0855
   37   1 Si  14       6.151701    5.743164    1.652770       4.0000     28.0855
   38   1 Si  14       8.164320    4.634417    2.456916       4.0000     28.0855
   39   1 Si  14      10.041914    5.742759    1.630906       4.0000     28.0855
   40   1 Si  14      11.976139    4.553806    2.296318       4.0000     28.0855
   41   2 H    1       7.915071    2.613784    0.256790       1.0000      1.0079
   42   2 H    1       9.948080    0.994577    3.832547       1.0000      1.0079
   43   2 H    1       9.437483    3.189563    5.161983       1.0000      1.0079
   44   2 H    1      12.085065    2.043384    8.759676       1.0000      1.0079
   45   2 H    1      12.116560    2.254355    0.314450       1.0000      1.0079
   46   2 H    1      14.173565    0.851552    3.857065       1.0000      1.0079
   47   2 H    1       6.230892    3.422700    5.227849       1.0000      1.0079
   48   2 H    1       7.919580    2.385135    9.132526       1.0000      1.0079
   49   2 H    1       6.296106    5.819604    0.147656       1.0000      1.0079
   50   2 H    1       8.020945    4.703784    3.971219       1.0000      1.0079
   51   2 H    1      12.451423   -0.809149    5.324904       1.0000      1.0079
   52   2 H    1      10.150019    5.838111    8.694482       1.0000      1.0079
   53   2 H    1       9.873119    5.475255    0.163689       1.0000      1.0079
   54   2 H    1      11.996648    4.592971    3.806304       1.0000      1.0079
   55   2 H    1       7.963932    0.129868    5.125164       1.0000      1.0079
   56   2 H    1       5.865551    6.022743    8.992290       1.0000      1.0079
   57   3 Ge  32       9.972191    3.240797    6.617441       4.0000     72.6400
   58   3 Ge  32      12.109828    2.104757    7.214916       4.0000     72.6400
   59   3 Ge  32       6.073492    3.262635    6.737270       4.0000     72.6400
   60   3 Ge  32       8.063333    2.245750    7.627016       4.0000     72.6400
   61   3 Ge  32      12.213092   -0.348982    6.818755       4.0000     72.6400
   62   3 Ge  32       9.754098    5.626625    7.280173       4.0000     72.6400
   63   3 Ge  32       7.937382   -0.003604    6.688734       4.0000     72.6400
   64   3 Ge  32       5.869269    5.675366    7.497184       4.0000     72.6400
   65   1 Si  14      -3.829448    9.158494    1.498170       4.0000     28.0855
   66   1 Si  14      -1.793840    8.087853    2.314626       4.0000     28.0855
   67   1 Si  14       0.158646    9.206952    1.521815       4.0000     28.0855
   68   1 Si  14       2.229172    8.252078    2.146358       4.0000     28.0855
   69   1 Si  14      -5.853096   12.653570    1.425693       4.0000     28.0855
   70   1 Si  14      -3.931633   11.448174    2.109802       4.0000     28.0855
   71   1 Si  14      -1.797825   12.716169    1.525004       4.0000     28.0855
   72   1 Si  14       0.161441   11.550322    2.264596       4.0000     28.0855
   73   2 H    1      -4.080100    8.818966    0.010272       1.0000      1.0079
   74   2 H    1      -1.969363    8.270566    3.790880       1.0000      1.0079
   75   2 H    1      -1.644270   10.468159    5.025686       1.0000      1.0079
   76   2 H    1      -0.418354    8.867828    9.119969       1.0000      1.0079
   77   2 H    1      -0.076101    9.392070    0.103528       1.0000      1.0079
   78   2 H    1       2.113371    8.354370    3.704732       1.0000      1.0079
   79   2 H    1      -6.720720   10.496615    5.510069       1.0000      1.0079
   80   2 H    1      -3.890041    8.837696    8.644984       1.0000      1.0079
   81   2 H    1      -5.864501   12.883608   -0.049273       1.0000      1.0079
   82   2 H    1      -3.990144   11.100789    3.603250       1.0000      1.0079
   83   2 H    1       0.066319    7.549672    5.028237       1.0000      1.0079
   84   2 H    1      -2.193672   12.643544    8.845074       1.0000      1.0079
   85   2 H    1      -1.975471   12.632365   -0.013295       1.0000      1.0079
   86   2 H    1       0.257791   11.696979    3.771763       1.0000      1.0079
   87   2 H    1      -4.135301    6.654371    4.803535       1.0000      1.0079
   88   2 H    1      -5.508000   12.664071    9.188416       1.0000      1.0079
   89   3 Ge  32      -2.060935   10.304656    6.568781       4.0000     72.6400
   90   3 Ge  32      -0.254580    9.094834    7.569436       4.0000     72.6400
   91   3 Ge  32      -6.214634   10.222542    6.928162       4.0000     72.6400
   92   3 Ge  32      -4.084045    9.050563    7.173217       4.0000     72.6400
   93   3 Ge  32      -0.261196    6.983227    6.449203       4.0000     72.6400
   94   3 Ge  32      -2.036840   12.683028    7.358489       4.0000     72.6400
   95   3 Ge  32      -4.185317    6.817747    6.302134       4.0000     72.6400
   96   3 Ge  32      -5.924091   12.720716    7.718871       4.0000     72.6400
   97   1 Si  14       4.201108    9.257036    1.291974       4.0000     28.0855
   98   1 Si  14       6.046424    8.049306    2.186455       4.0000     28.0855
   99   1 Si  14       8.074893    9.036920    1.452449       4.0000     28.0855
  100   1 Si  14      10.106841    8.089883    2.265411       4.0000     28.0855
  101   1 Si  14       2.069160   12.630513    1.425306       4.0000     28.0855
  102   1 Si  14       4.211528   11.533222    1.999393       4.0000     28.0855
  103   1 Si  14       6.229157   12.664883    1.401118       4.0000     28.0855
  104   1 Si  14       8.119789   11.339684    1.967754       4.0000     28.0855
  105   2 H    1       4.051776    9.140941   -0.234335       1.0000      1.0079
  106   2 H    1       5.881258    8.272594    3.749121       1.0000      1.0079
  107   2 H    1       6.139450   10.170290    5.830977       1.0000      1.0079
  108   2 H    1       8.083273    9.128057    9.723247       1.0000      1.0079
  109   2 H    1       8.080787    8.797567   -0.064688       1.0000      1.0079
  110   2 H    1      10.048666    8.092492    3.723993       1.0000      1.0079
  111   2 H    1       1.903331   10.091260    5.376646       1.0000      1.0079
  112   2 H    1       3.528185    8.944344    9.192079       1.0000      1.0079
  113   2 H    1       2.005610   12.766179   -0.041329       1.0000      1.0079
  114   2 H    1       4.288114   11.294531    3.489447       1.0000      1.0079
  115   2 H    1       8.119548    7.605213    5.512208       1.0000      1.0079
  116   2 H    1       6.190969   12.839737    9.573149       1.0000      1.0079
  117   2 H    1       6.415862   12.906736   -0.033240       1.0000      1.0079
  118   2 H    1       8.128679   11.226021    3.505329       1.0000      1.0079
  119   2 H    1       3.903884    6.783922    5.289988       1.0000      1.0079
  120   2 H    1       2.166910   12.628354    9.016695       1.0000      1.0079
  121   3 Ge  32       6.018961   10.350436    7.394547       4.0000     72.6400
  122   3 Ge  32       7.912406    9.001203    8.235899       4.0000     72.6400
  123   3 Ge  32       1.787428   10.185691    6.922007       4.0000     72.6400
  124   3 Ge  32       3.863277    9.078512    7.711569       4.0000     72.6400
  125   3 Ge  32       7.788823    6.912395    6.828809       4.0000     72.6400
  126   3 Ge  32       6.228568   12.632149    8.018120       4.0000     72.6400
  127   3 Ge  32       3.881393    6.889210    6.854836       4.0000     72.6400
  128   3 Ge  32       2.059411   12.611418    7.484675       4.0000     72.6400




 SCF PARAMETERS         Density guess:                                   RESTART
                        --------------------------------------------------------
                        max_scf:                                              50
                        max_scf_history:                                       0
                        max_diis:                                              4
                        --------------------------------------------------------
                        eps_scf:                                        1.00E-06
                        eps_scf_history:                                0.00E+00
                        eps_diis:                                       1.00E-01
                        eps_eigval:                                     1.00E-05
                        --------------------------------------------------------
                        level_shift [a.u.]:                                 0.00
                        added MOs                                        50    0
                        --------------------------------------------------------
                        Mixing method:                            BROYDEN_MIXING
                                                charge density mixing in g-space
                        --------------------------------------------------------
                        No outer SCF

 PW_GRID| Information for grid number                                          1
 PW_GRID| Grid distributed over                                    40 processors
 PW_GRID| Real space group dimensions                                    40    1
 PW_GRID| the grid is blocked:                                                NO
 PW_GRID| Cutoff [a.u.]                                                    175.0
 PW_GRID| spherical cutoff:                                                   NO
 PW_GRID|   Bounds   1            -90      89                Points:         180
 PW_GRID|   Bounds   2            -90      89                Points:         180
 PW_GRID|   Bounds   3           -180     179                Points:         360
 PW_GRID| Volume element (a.u.^3)  0.3784E-02     Volume (a.u.^3)     44134.1676
 PW_GRID| Grid span                                                    FULLSPACE
 PW_GRID|   Distribution                         Average         Max         Min
 PW_GRID|   G-Vectors                           291600.0      291600      291600
 PW_GRID|   G-Rays                                1620.0        1620        1620
 PW_GRID|   Real Space Points                   291600.0      324000      259200

 PW_GRID| Information for grid number                                          2
 PW_GRID| Number of the reference grid                                         1
 PW_GRID| Grid distributed over                                    40 processors
 PW_GRID| Real space group dimensions                                    40    1
 PW_GRID| the grid is blocked:                                                NO
 PW_GRID| Cutoff [a.u.]                                                     58.3
 PW_GRID| spherical cutoff:                                                   NO
 PW_GRID|   Bounds   1            -54      53                Points:         108
 PW_GRID|   Bounds   2            -54      53                Points:         108
 PW_GRID|   Bounds   3           -100      99                Points:         200
 PW_GRID| Volume element (a.u.^3)  0.1892E-01     Volume (a.u.^3)     44134.1676
 PW_GRID| Grid span                                                    FULLSPACE
 PW_GRID|   Distribution                         Average         Max         Min
 PW_GRID|   G-Vectors                            58320.0       59724       57024
 PW_GRID|   G-Rays                                 540.0         553         528
 PW_GRID|   Real Space Points                    58320.0       64800       43200

 PW_GRID| Information for grid number                                          3
 PW_GRID| Number of the reference grid                                         1
 PW_GRID| Grid distributed over                                    40 processors
 PW_GRID| Real space group dimensions                                    40    1
 PW_GRID| the grid is blocked:                                                NO
 PW_GRID| Cutoff [a.u.]                                                     19.4
 PW_GRID| spherical cutoff:                                                   NO
 PW_GRID|   Bounds   1            -30      29                Points:          60
 PW_GRID|   Bounds   2            -30      29                Points:          60
 PW_GRID|   Bounds   3            -60      59                Points:         120
 PW_GRID| Volume element (a.u.^3)  0.1022         Volume (a.u.^3)     44134.1676
 PW_GRID| Grid span                                                    FULLSPACE
 PW_GRID|   Distribution                         Average         Max         Min
 PW_GRID|   G-Vectors                            10800.0       11040       10380
 PW_GRID|   G-Rays                                 180.0         184         173
 PW_GRID|   Real Space Points                    10800.0       14400        7200

 PW_GRID| Information for grid number                                          4
 PW_GRID| Number of the reference grid                                         1
 PW_GRID| Grid distributed over                                    40 processors
 PW_GRID| Real space group dimensions                                     5    8
 PW_GRID| the grid is blocked:                                                NO
 PW_GRID| Cutoff [a.u.]                                                      6.5
 PW_GRID| spherical cutoff:                                                   NO
 PW_GRID|   Bounds   1            -18      17                Points:          36
 PW_GRID|   Bounds   2            -18      17                Points:          36
 PW_GRID|   Bounds   3            -36      35                Points:          72
 PW_GRID| Volume element (a.u.^3)  0.4730         Volume (a.u.^3)     44134.1676
 PW_GRID| Grid span                                                    FULLSPACE
 PW_GRID|   Distribution                         Average         Max         Min
 PW_GRID|   G-Vectors                             2332.8        2520        2160
 PW_GRID|   G-Rays                                  64.8          70          60
 PW_GRID|   Real Space Points                     2332.8        2880        2016

 POISSON| Solver                                                        PERIODIC
 POISSON| Periodicity                                                        XYZ

 RS_GRID| Information for grid number                                          1
 RS_GRID|   Bounds   1            -90      89                Points:         180
 RS_GRID|   Bounds   2            -90      89                Points:         180
 RS_GRID|   Bounds   3           -180     179                Points:         360
 RS_GRID| Real space distribution over                                  4 groups
 RS_GRID| Real space distribution along direction                              2
 RS_GRID| Border size                                                         38
 RS_GRID| Real space distribution over                                 10 groups
 RS_GRID| Real space distribution along direction                              3
 RS_GRID| Border size                                                         38
 RS_GRID|   Distribution                         Average         Max         Min
 RS_GRID|   Planes                                 121.0         121         121
 RS_GRID|   Distribution                         Average         Max         Min
 RS_GRID|   Planes                                 112.0         112         112

 RS_GRID| Information for grid number                                          2
 RS_GRID|   Bounds   1            -54      53                Points:         108
 RS_GRID|   Bounds   2            -54      53                Points:         108
 RS_GRID|   Bounds   3           -100      99                Points:         200
 RS_GRID| Real space distribution over                                  4 groups
 RS_GRID| Real space distribution along direction                              2
 RS_GRID| Border size                                                         38
 RS_GRID| Real space distribution over                                 10 groups
 RS_GRID| Real space distribution along direction                              3
 RS_GRID| Border size                                                         38
 RS_GRID|   Distribution                         Average         Max         Min
 RS_GRID|   Planes                                 103.0         103         103
 RS_GRID|   Distribution                         Average         Max         Min
 RS_GRID|   Planes                                  96.0          96          96

 RS_GRID| Information for grid number                                          3
 RS_GRID|   Bounds   1            -30      29                Points:          60
 RS_GRID|   Bounds   2            -30      29                Points:          60
 RS_GRID|   Bounds   3            -60      59                Points:         120
 RS_GRID| Real space fully replicated
 RS_GRID| Group size                                                           1

 RS_GRID| Information for grid number                                          4
 RS_GRID|   Bounds   1            -18      17                Points:          36
 RS_GRID|   Bounds   2            -18      17                Points:          36
 RS_GRID|   Bounds   3            -36      35                Points:          72
 RS_GRID| Real space fully replicated
 RS_GRID| Group size                                                           1

  HFX_INFO| Replica ID:                                                        1
  HFX_INFO| FRACTION:                                               0.2000000000
  HFX_INFO| Interaction Potential:                                     TRUNCATED
  HFX_INFO| Cutoff Radius [angstrom]:                               6.0000000000
  HFX_INFO| EPS_SCHWARZ:                                                 1.0E-08
  HFX_INFO| EPS_SCHWARZ_FORCES                                           1.0E-06
  HFX_INFO| EPS_STORAGE_SCALING:                                         1.0E-01
  HFX_INFO| NBINS:                                                            64
  HFX_INFO| BLOCK_SIZE:                                                        2
  HFX_INFO| NUMBER_OF_SHELLS:                                               AUTO
  HFX_INFO| Number of periodic shells considered:                             -1
  HFX_INFO| Number of periodic cells considered:                              27


 Number of electrons:                                                        320
 Number of occupied orbitals:                                                160
 Number of molecular orbitals:                                               210

 Number of orbital functions:                                               1152
 Number of independent orbital functions:                                   1152

 Extrapolation method: initial_guess

 *** WARNING in qs_initial_guess.F:309 :: User requested to restart the    ***
 *** wavefunction from the file named: Diag_libra-2008-RESTART.wfn. This   ***
 *** file does not exist. Please check the existence of the file or change ***
 *** properly the value of the keyword WFN_RESTART_FILE_NAME. Calculation  ***
 *** continues using ATOMIC GUESS.                                         ***


 Atomic guess: The first density matrix is obtained in terms of atomic orbitals
               and electronic configurations assigned to each atomic kind

 Guess for atomic kind: Si

 Electronic structure
    Total number of core electrons                                         10.00
    Total number of valence electrons                                       4.00
    Total number of electrons                                              14.00
    Multiplicity                                                   not specified
    S   [  2.00  2.00] 2.00
    P   [  6.00] 2.00


 *******************************************************************************
                  Iteration          Convergence                     Energy [au]
 *******************************************************************************
                          1        0.526541E-01                  -3.659692963728
                          2        0.125823E-01                  -3.661785675622
                          3        0.408986E-04                  -3.661911567360
                          4        0.675570E-07                  -3.661911568709

 Energy components [Hartree]           Total Energy ::           -3.661911568709
                                        Band Energy ::           -0.941881516273
                                     Kinetic Energy ::            1.409736465412
                                   Potential Energy ::           -5.071648034121
                                      Virial (-V/T) ::            3.597585902439
                                        Core Energy ::           -5.690149137281
                                          XC Energy ::           -0.992569238249
                                     Coulomb Energy ::            3.020806806821
                       Total Pseudopotential Energy ::           -7.143143335066
                       Local Pseudopotential Energy ::           -8.006124475851
                    Nonlocal Pseudopotential Energy ::            0.862981140786
                                        Confinement ::            0.432577323720

 Orbital energies  State     L     Occupation   Energy[a.u.]          Energy[eV]

                       1     0          2.000      -0.357276           -9.721984

                       1     1          2.000      -0.113664           -3.092965


 Total Electron Density at R=0:                                         0.000026

 Guess for atomic kind: H

 Electronic structure
    Total number of core electrons                                          0.00
    Total number of valence electrons                                       1.00
    Total number of electrons                                               1.00
    Multiplicity                                                   not specified
    S      1.00


 *******************************************************************************
                  Iteration          Convergence                     Energy [au]
 *******************************************************************************
                          1        0.250972E-02                  -0.375256815885
                          2        0.570752E-04                  -0.375258666164
                          3        0.832405E-09                  -0.375258667122

 Energy components [Hartree]           Total Energy ::           -0.375258667122
                                        Band Energy ::           -0.076317618391
                                     Kinetic Energy ::            0.771356566341
                                   Potential Energy ::           -1.146615233463
                                      Virial (-V/T) ::            1.486491829455
                                        Core Energy ::           -0.456090715790
                                          XC Energy ::           -0.314218627334
                                     Coulomb Energy ::            0.395050676003
                       Total Pseudopotential Energy ::           -1.238482237174
                       Local Pseudopotential Energy ::           -1.238482237174
                    Nonlocal Pseudopotential Energy ::            0.000000000000
                                        Confinement ::            0.110349550431

 Orbital energies  State     L     Occupation   Energy[a.u.]          Energy[eV]

                       1     0          1.000      -0.076318           -2.076708


 Total Electron Density at R=0:                                         0.425022

 Guess for atomic kind: Ge

 Electronic structure
    Total number of core electrons                                         28.00
    Total number of valence electrons                                       4.00
    Total number of electrons                                              32.00
    Multiplicity                                                   not specified
    S   [  2.00  2.00  2.00] 2.00
    P   [  6.00  6.00] 2.00
    D   [ 10.00]


 *******************************************************************************
                  Iteration          Convergence                     Energy [au]
 *******************************************************************************
                          1        0.142224                      -3.669910672039
                          2        0.333188E-01                  -3.687823698339
                          3        0.522642E-04                  -3.688875018994
                          4        0.333285E-05                  -3.688875020047
                          5        0.154106E-05                  -3.688875020053
                          6        0.996835E-06                  -3.688875020055

 Energy components [Hartree]           Total Energy ::           -3.688875020055
                                        Band Energy ::           -0.991816616960
                                     Kinetic Energy ::            1.446010121603
                                   Potential Energy ::           -5.134885141658
                                      Virial (-V/T) ::            3.551071368687
                                        Core Energy ::           -5.696847161393
                                          XC Energy ::           -0.988567154744
                                     Coulomb Energy ::            2.996539296082
                       Total Pseudopotential Energy ::           -7.185566698510
                       Local Pseudopotential Energy ::           -7.622158091196
                    Nonlocal Pseudopotential Energy ::            0.436591392686
                                        Confinement ::            0.427094155139

 Orbital energies  State     L     Occupation   Energy[a.u.]          Energy[eV]

                       1     0          2.000      -0.391724          -10.659354

                       1     1          2.000      -0.104184           -2.834997


 Total Electron Density at R=0:                                         0.000078
 Re-scaling the density matrix to get the right number of electrons
                  # Electrons              Trace(P)               Scaling factor
                          320               320.000                        1.000


 SCF WAVEFUNCTION OPTIMIZATION

  Step     Update method      Time    Convergence         Total energy    Change
  ------------------------------------------------------------------------------

  HFX_MEM_INFO| Est. max. program size before HFX [MiB]:                     519

 *** WARNING in hfx_energy_potential.F:591 :: The Kohn Sham matrix is not  ***
 *** 100% occupied. This may result in incorrect Hartree-Fock results. Try ***
 *** to decrease EPS_PGF_ORB and EPS_FILTER_MATRIX in the QS section. For  ***
 *** more information see FAQ: https://www.cp2k.org/faq:hfx_eps_warning    ***

  HFX_MEM_INFO| Number of cart. primitive ERI's calculated:          16137105892
  HFX_MEM_INFO| Number of sph. ERI's calculated:                      4161522310
  HFX_MEM_INFO| Number of sph. ERI's stored in-core:                  4161521979
  HFX_MEM_INFO| Number of sph. ERI's stored on disk:                           0
  HFX_MEM_INFO| Number of sph. ERI's calculated on the fly:                    0
  HFX_MEM_INFO| Total memory consumption ERI's RAM [MiB]:                   6538
  HFX_MEM_INFO| Whereof max-vals [MiB]:                                      278
  HFX_MEM_INFO| Total compression factor ERI's RAM:                         4.86
  HFX_MEM_INFO| Total memory consumption ERI's disk [MiB]:                     0
  HFX_MEM_INFO| Total compression factor ERI's disk:                        0.00
  HFX_MEM_INFO| Size of density/Fock matrix [MiB]:                             2
  HFX_MEM_INFO| Size of buffers [MiB]:                                         1
  HFX_MEM_INFO| Number of periodic image cells considered:                    27
  HFX_MEM_INFO| Est. max. program size after HFX  [MiB]:                     690

     1 NoMix/Diag. 0.30E+00   46.8     1.27256436      -266.0550000484 -2.66E+02
     2 Broy./Diag. 0.30E+00    6.2     0.64591236      -277.4548663619 -1.14E+01
     3 Broy./Diag. 0.30E+00    6.5     0.45378003      -281.7723527272 -4.32E+00
     4 Broy./Diag. 0.30E+00    6.2     0.09104450      -284.6017278093 -2.83E+00
     5 Broy./Diag. 0.30E+00    6.5     0.03643091      -286.3144107487 -1.71E+00
     6 Broy./Diag. 0.30E+00    6.3     0.01746584      -287.3893940043 -1.07E+00
     7 Broy./Diag. 0.30E+00    6.5     0.00733771      -287.7964938673 -4.07E-01
     8 Broy./Diag. 0.30E+00    6.2     0.00738583      -287.8149084923 -1.84E-02
     9 Broy./Diag. 0.30E+00    6.2     0.00535784      -287.8489199813 -3.40E-02
    10 Broy./Diag. 0.30E+00    6.5     0.00750510      -287.8396430267  9.28E-03
    11 Broy./Diag. 0.30E+00    6.3     0.00468340      -287.8453793259 -5.74E-03
    12 Broy./Diag. 0.30E+00    6.5     0.00279909      -287.9315287660 -8.61E-02
    13 Broy./Diag. 0.30E+00    6.3     0.00101686      -287.9608156982 -2.93E-02
    14 Broy./Diag. 0.30E+00    6.6     0.00171143      -287.9531141233  7.70E-03
    15 Broy./Diag. 0.30E+00    6.4     0.00060363      -287.9627843256 -9.67E-03
    16 Broy./Diag. 0.30E+00    6.4     0.00137149      -287.9571331827  5.65E-03
    17 Broy./Diag. 0.30E+00    6.6     0.00036457      -287.9551936046  1.94E-03
    18 Broy./Diag. 0.30E+00    6.3     0.00072774      -287.9520102214  3.18E-03
    19 Broy./Diag. 0.30E+00    6.6     0.00057241      -287.9501038117  1.91E-03
    20 Broy./Diag. 0.30E+00    6.4     0.00015087      -287.9578371643 -7.73E-03
    21 Broy./Diag. 0.30E+00    6.6     0.00023017      -287.9598396933 -2.00E-03
    22 Broy./Diag. 0.30E+00    6.3     0.00006796      -287.9591312963  7.08E-04
    23 Broy./Diag. 0.30E+00    6.3     0.00009138      -287.9594640853 -3.33E-04
    24 Broy./Diag. 0.30E+00    6.5     0.00011099      -287.9594587603  5.32E-06
    25 Broy./Diag. 0.30E+00    6.3     0.00005420      -287.9601469859 -6.88E-04
    26 Broy./Diag. 0.30E+00    6.5     0.00011301      -287.9604664156 -3.19E-04
    27 Broy./Diag. 0.30E+00    6.3     0.00003677      -287.9607674051 -3.01E-04
    28 Broy./Diag. 0.30E+00    6.6     0.00002716      -287.9608926085 -1.25E-04
    29 Broy./Diag. 0.30E+00    6.3     0.00001332      -287.9609223864 -2.98E-05
    30 Broy./Diag. 0.30E+00    6.3     0.00001352      -287.9611116571 -1.89E-04
    31 Broy./Diag. 0.30E+00    6.6     0.00000998      -287.9610639344  4.77E-05
    32 Broy./Diag. 0.30E+00    6.3     0.00001118      -287.9610259461  3.80E-05
    33 Broy./Diag. 0.30E+00    6.5     0.00001074      -287.9611001461 -7.42E-05
    34 Broy./Diag. 0.30E+00    6.3     0.00000260      -287.9611063393 -6.19E-06
    35 Broy./Diag. 0.30E+00    6.6     0.00000753      -287.9611521572 -4.58E-05
    36 Broy./Diag. 0.30E+00    6.3     0.00000609      -287.9612029479 -5.08E-05
    37 Broy./Diag. 0.30E+00    6.3     0.00000162      -287.9612067255 -3.78E-06
    38 Broy./Diag. 0.30E+00    6.6     0.00000230      -287.9612233600 -1.66E-05
    39 Broy./Diag. 0.30E+00    7.0     0.00000087      -287.9612364769 -1.31E-05

  *** SCF run converged in    39 steps ***


  Electronic density on regular grids:       -319.9999999982        0.0000000018
  Core density on regular grids:              319.9999999278       -0.0000000722
  Total charge density on r-space grids:       -0.0000000704
  Total charge density g-space grids:          -0.0000000704

  Overlap energy of the core charge distribution:               0.00002318381914
  Self energy of the core charge distribution:               -685.99374549079380
  Core Hamiltonian energy:                                    163.77644884663107
  Hartree energy:                                             331.69315326403785
  Exchange-correlation energy:                                -79.82098090356982
  Hartree-Fock Exchange energy:                               -17.16839036813511
  Dispersion energy:                                           -0.44774500886403

  Total energy:                                              -287.96123647687472

   Calculate PDOS at iteration step                                  0

              ---- PDOS: start iteration on the KS states --- 

 *******************************************************************************
 **                                                                           **
 **         ######## #######   #######   ######## #######  ########           **
 **            ##    ##     ## ##     ## ##       ##   ##     ##              **
 **            ##    ##     ## ##     ## ######   #######     ##              **
 **            ##    ##     ## ##     ## ##       ##          ##              **
 **            ##    #######   #######   ##       ##          ##              **
 **                                                                           **
 *******************************************************************************
 
 -------------------------------------------------------------------------------
 -                            TDDFPT Initial Guess                             -
 -------------------------------------------------------------------------------
          State         Occupied      ->      Virtual          Excitation
          number         orbital              orbital          energy (eV)
 -------------------------------------------------------------------------------
             1              160                  161              1.93878
             2              159                  161              2.05045
             3              160                  162              2.08426
             4              160                  163              2.15113
             5              159                  162              2.19593
             6              160                  164              2.20759
             7              159                  163              2.26280
             8              160                  165              2.28182
             9              159                  164              2.31926
            10              159                  165              2.39349
            11              160                  166              2.48098
            12              160                  167              2.54505
            13              160                  168              2.56666
            14              159                  166              2.59265
            15              160                  169              2.62051
            16              159                  167              2.65672
            17              160                  170              2.65858
            18              159                  168              2.67833
            19              160                  171              2.68463
            20              160                  172              2.72099

      Number of active states:                                     158720
 -------------------------------------------------------------------------------
 
 -------------------------------------------------------------------------------
 -                      TDDFPT WAVEFUNCTION OPTIMIZATION                       -
 -------------------------------------------------------------------------------

          Step            Time         Convergence           Conv. states
 -------------------------------------------------------------------------------

    State    Exc. energy (eV)      Convergence (eV)
        1       1.6493442            -2.8944E-01
        2       1.7585467            -2.9190E-01
        3       1.9163553            -1.6791E-01
        4       2.0314293            -1.1970E-01
        5       2.0626371            -1.3329E-01
        6       2.0942159            -1.1338E-01
        7       2.1693146            -9.3485E-02
        8       2.1817254            -1.0009E-01
        9       2.2130586            -1.0620E-01
       10       2.2609000            -1.3259E-01
       11       2.2936969            -1.8728E-01
       12       2.3126574            -2.3240E-01
       13       2.3834242            -1.8324E-01
       14       2.4147920            -1.7785E-01
       15       2.4680852            -1.5242E-01
       16       2.5069735            -1.4974E-01
       17       2.5356770            -1.2290E-01
       18       2.5764796            -1.0185E-01
       19       2.5933260            -9.1300E-02
       20       2.6223674            -9.8619E-02

             1           123.9          1.0727E-02                      0

    State    Exc. energy (eV)      Convergence (eV)
        1       1.6116279            -3.7716E-02
        2       1.7189070            -3.9640E-02
        3       1.9108228            -5.5326E-03
        4       2.0254992            -5.9300E-03
        5       2.0472688            -1.5368E-02
        6       2.0785858            -1.5630E-02
        7       2.1488615            -2.0453E-02
        8       2.1718166            -9.9088E-03
        9       2.1900655            -2.2993E-02
       10       2.2324343            -2.8466E-02
       11       2.2714542            -2.2243E-02
       12       2.2781830            -3.4474E-02
       13       2.3590748            -2.4349E-02
       14       2.3962429            -1.8549E-02
       15       2.4367731            -3.1312E-02
       16       2.4464419            -6.0532E-02
       17       2.4675796            -6.8097E-02
       18       2.5286988            -4.7781E-02
       19       2.5429242            -5.0402E-02
       20       2.5873860            -3.4981E-02

             2           123.9          2.5025E-03                      0

    State    Exc. energy (eV)      Convergence (eV)
        1       1.6050213            -6.6066E-03
        2       1.7117560            -7.1511E-03
        3       1.9103997            -4.2307E-04
        4       2.0249725            -5.2670E-04
        5       2.0453935            -1.8753E-03
        6       2.0768762            -1.7096E-03
        7       2.1457523            -3.1092E-03
        8       2.1699555            -1.8611E-03
        9       2.1856890            -4.3765E-03
       10       2.2283363            -4.0979E-03
       11       2.2649699            -6.4843E-03
       12       2.2721802            -6.0028E-03
       13       2.3544074            -4.6674E-03
       14       2.3800567            -1.6186E-02
       15       2.3917667            -4.5006E-02
       16       2.4253519            -2.1090E-02
       17       2.4627781            -4.8015E-03
       18       2.4704779            -5.8221E-02
       19       2.5217782            -2.1146E-02
       20       2.5332288            -5.4157E-02

[...]
 flops     5 x    18 x    13             19169280       0.0%    100.0%      0.0%
 flops     8 x     2 x    18             43804800       0.0%    100.0%      0.0%
 flops     2 x     8 x    18             43984512       0.0%    100.0%      0.0%
 flops    13 x    18 x    13             49840128       0.0%    100.0%      0.0%
 flops     5 x     1 x     5             73788400       0.0%    100.0%      0.0%
 flops     5 x     5 x    18             74736000       0.0%    100.0%      0.0%
 flops     2 x     2 x    32            108785664       0.0%    100.0%      0.0%
 flops     8 x     8 x    18            186900480       0.0%    100.0%      0.0%
 flops     5 x    13 x    18            191692800       0.0%    100.0%      0.0%
 flops    13 x     5 x    18            191692800       0.0%    100.0%      0.0%
 flops     5 x     1 x    13            192225280       0.0%    100.0%      0.0%
 flops    13 x     1 x     5            192225280       0.0%    100.0%      0.0%
 flops   283 x   111 x    32            402086400       0.0%    100.0%      0.0%
 flops   286 x   111 x    32            406348800       0.0%    100.0%      0.0%
 flops   288 x   111 x    32            409190400       0.0%    100.0%      0.0%
 flops   295 x   111 x    32            419136000       0.0%    100.0%      0.0%
 flops     8 x     2 x    32            467251200       0.0%    100.0%      0.0%
 flops     2 x     8 x    32            469168128       0.0%    100.0%      0.0%
 flops    13 x     1 x    13            499785728       0.0%    100.0%      0.0%
 flops    13 x    13 x    18            506188800       0.0%    100.0%      0.0%
 flops     5 x     5 x    32            797184000       0.0%    100.0%      0.0%
 flops   283 x   113 x    32           1227993600       0.0%    100.0%      0.0%
 flops   286 x   113 x    32           1241011200       0.0%    100.0%      0.0%
 flops   288 x   113 x    32           1249689600       0.0%    100.0%      0.0%
 flops   283 x   116 x    32           1260595200       0.0%    100.0%      0.0%
 flops   286 x   116 x    32           1273958400       0.0%    100.0%      0.0%
 flops   295 x   113 x    32           1280064000       0.0%    100.0%      0.0%
 flops   283 x   118 x    32           1282329600       0.0%    100.0%      0.0%
 flops   288 x   116 x    32           1282867200       0.0%    100.0%      0.0%
 flops   286 x   118 x    32           1295923200       0.0%    100.0%      0.0%
 flops   288 x   118 x    32           1304985600       0.0%    100.0%      0.0%
 flops   295 x   116 x    32           1314048000       0.0%    100.0%      0.0%
 flops   295 x   118 x    32           1336704000       0.0%    100.0%      0.0%
 flops     8 x     8 x    32           1993605120       0.0%    100.0%      0.0%
 flops     5 x    13 x    32           2044723200       0.0%    100.0%      0.0%
 flops    13 x     5 x    32           2044723200       0.0%    100.0%      0.0%
 flops    13 x    13 x    32           5399347200       0.0%    100.0%      0.0%
 flops     2 x    32 x     2           7234191360       0.0%    100.0%      0.0%
 flops     5 x    32 x     5          30735219200       0.0%    100.0%      0.0%
 flops     2 x    32 x     8          31694192640       0.0%    100.0%      0.0%
 flops     8 x    32 x     2          31694192640       0.0%    100.0%      0.0%
 flops     5 x    32 x    13          80067952640       0.0%    100.0%      0.0%
 flops    13 x    32 x     5          80067952640       0.0%    100.0%      0.0%
 flops     8 x    32 x     8         132875550720       0.0%    100.0%      0.0%
 flops    13 x    32 x    13         208176676864       0.0%    100.0%      0.0%
 flops inhomo. stacks                           0       0.0%      0.0%      0.0%
 flops total                       635.160408E+09       0.0%    100.0%      0.0%
 flops max/rank                     26.995286E+09       0.0%    100.0%      0.0%
 matmuls inhomo. stacks                         0       0.0%      0.0%      0.0%
 matmuls total                          209945964       0.0%    100.0%      0.0%
 number of processed stacks               2406880       0.0%    100.0%      0.0%
 average stack size                                     0.0      87.2       0.0
 marketing flops                   646.868369E+09
 -------------------------------------------------------------------------------
 # multiplications                           1629
 max memory usage/rank             832.778240E+06
 # max total images/rank                        5
 # max 3D layers                                1
 # MPI messages exchanged                 2150280
 MPI messages size (bytes):
  total size                       139.814552E+09
  min size                           0.000000E+00
  max size                         176.800000E+03
  average size                      65.021555E+03
 MPI breakdown and total messages size (bytes):
             size <=      128              580182                        0
       128 < size <=     8192               21720                 10440576
      8192 < size <=    32768              423714               8088221952
     32768 < size <=   131072              660264              65379962592
    131072 < size <=  4194304              464400              66324679200
   4194304 < size <= 16777216                   0                        0
  16777216 < size                               0                        0
 -------------------------------------------------------------------------------

 *** WARNING in dbcsr_mm.F:294 :: Using a non-square number of MPI ranks ***
 *** might lead to poor performance. Used ranks: 40 Suggested: 36 81     ***

 -------------------------------------------------------------------------------
 -                                                                             -
 -                      DBCSR MESSAGE PASSING PERFORMANCE                      -
 -                                                                             -
 -------------------------------------------------------------------------------
 ROUTINE             CALLS      AVE VOLUME [Bytes]
 MP_Bcast               49                     12.
 MP_Allreduce         5578                      8.
 MP_Alltoall         51067                  32934.
 MP_ISend           123566                  32080.
 MP_IRecv           129844                  30046.
 -------------------------------------------------------------------------------

 -------------------------------------------------------------------------------
 -                                                                             -
 -                                GRID STATISTICS                              -
 -                                                                             -
 -------------------------------------------------------------------------------
 LP    KERNEL             BACKEND                              COUNT     PERCENT
 1     collocate general  REF                                9717760      16.36%
 3     collocate general  REF                                9555471      16.09%
 3     integrate general  REF                                9482249      15.97%
 0     collocate general  REF                                7964500      13.41%
 2     collocate general  REF                                7933160      13.36%
 2     integrate general  REF                                4993520       8.41%
 4     collocate general  REF                                4889574       8.23%
 4     integrate general  REF                                4852106       8.17%
 -------------------------------------------------------------------------------

 MEMORY| Estimated peak process memory [MiB]                                 795

 -------------------------------------------------------------------------------
 ----                             MULTIGRID INFO                            ----
 -------------------------------------------------------------------------------
 count for grid        1:         222320          cutoff [a.u.]          175.00
 count for grid        2:         200156          cutoff [a.u.]           58.33
 count for grid        3:         186262          cutoff [a.u.]           19.44
 count for grid        4:          73849          cutoff [a.u.]            6.48
 total gridlevel count  :         682587

 -------------------------------------------------------------------------------
 -                                                                             -
 -                         MESSAGE PASSING PERFORMANCE                         -
 -                                                                             -
 -------------------------------------------------------------------------------

 ROUTINE             CALLS      AVE VOLUME [Bytes]
 MP_Group                4
 MP_Bcast              680                1636722.
 MP_Allreduce        26312                    265.
 MP_Sync              1446
 MP_Alltoall          7785               10082870.
 MP_ISendRecv        81120                  63197.
 MP_Wait            162330
 MP_comm_split          72
 MP_ISend            73366                 299667.
 MP_IRecv            74186                 297457.
 MP_Recv               378                 149650.
 -------------------------------------------------------------------------------


 -------------------------------------------------------------------------------
 -                                                                             -
 -                           R E F E R E N C E S                               -
 -                                                                             -
 -------------------------------------------------------------------------------
 
 CP2K version 9.1, the CP2K developers group (2021).
 CP2K is freely available from https://www.cp2k.org/ .

 Kuehne,Thomas D.; Iannuzzi,Marcella; Del Ben,Mauro;
 Rybkin,Vladimir V.; Seewald,Patrick; Stein,Frederick; Laino,Teodoro;
 Khaliullin,Rustam Z.; Schuett,Ole; Schiffmann,Florian; Golze,Dorothea;
 Wilhelm,Jan; Chulkov,Sergey; Bani-Hashemian,Mohammad Hossein;
 Weber,Valery; Borstnik,Urban; Taillefumier,Mathieu;
 Jakobovits,Alice Shoshana; Lazzaro,Alfio; Pabst,Hans; Mueller,Tiziano;
 Schade,Robert; Guidon,Manuel; Andermatt,Samuel; Holmberg,Nico;
 Schenter,Gregory K.; Hehn,Anna; Bussy,Augustin; Belleflamme,Fabian;
 Tabacchi,Gloria; Gloess,Andreas; Lass,Michael; Bethune,Iain;
 Mundy,Christopher J.; Plessl,Christian; Watkins,Matt;
 VandeVondele,Joost; Krack,Matthias; Hutter,Juerg. 
 The Journal of Chemical Physics, 152 (19), (2020). 
 CP2K: An electronic structure and molecular dynamics software package -
 Quickstep: Efficient and accurate electronic structure calculations.
 https://doi.org/10.1063/5.0007045

 Goerigk, Lars; Hansen, Andreas; Bauer, Christoph; Ehrlich, Stephan;
 Najibi, Asim; Grimme, Stefan. , 19 (48), (2017). 
 A look at the density functional theory zoo with the advanced GMTKN55 database
 for general main group thermochemistry, kinetics and noncovalent interactions.
 https://doi.org/10.1039/C7CP04913G

 Schuett, Ole; Messmer, Peter; Hutter, Juerg; VandeVondele, Joost. 
 Electronic Structure Calculations on Graphics Processing Units, John
 Wiley & Sons, Ltd, 173-190 (2016). 
 GPU-Accelerated Sparse Matrix-Matrix Multiplication for
 Linear Scaling Density Functional Theory.
 https://doi.org/10.1002/9781118670712.ch8

 Heinecke, A; Henry, G; Hutchinson, M; Pabst, H. 
 Proceedings of Intl. Supercomputing Conference, 981-991 (2016). 
 LIBXSMM: Accelerating Small Matrix Multiplications
 by Runtime Code Generation.
 https://doi.org/10.1109/SC.2016.83

 Borstnik, U; VandeVondele, J; Weber, V; Hutter, J. 
 PARALLEL COMPUTING, 40 (5-6), 47-58 (2014). 
 Sparse matrix multiplication: The distributed block-compressed sparse
 row library.
 https://doi.org/10.1016/j.parco.2014.03.012

 Hutter, J; Iannuzzi, M; Schiffmann, F; VandeVondele, J. 
 WIREs Comput Mol Sci., 4 (1), 15-25 (2014). 
 CP2K: atomistic simulations of condensed matter systems.
 https://doi.org/10.1002/wcms.1159

 Grimme, S; Ehrlich, S; Goerigk, L. 
 JOURNAL OF COMPUTATIONAL CHEMISTRY, 32, 1456 (2011). 
 Effect of the damping function in dispersion corrected density functional theory.
 https://doi.org/10.1002/jcc.21759

 Guidon, M; Hutter, J; VandeVondele, J. 
 JOURNAL OF CHEMICAL THEORY AND COMPUTATION, 6 (8), 2348-2364 (2010). 
 Auxiliary Density Matrix Methods for Hartree-Fock Exchange Calculations.
 https://doi.org/10.1021/ct1002225

 Grimme, S; Antony, J; Ehrlich, S; Krieg, H. 
 JOURNAL OF CHEMICAL PHYSICS, 132 (15), 154104 (2010). 
 A consistent and accurate ab initio parametrization of density
 functional dispersion correction (DFT-D) for the 94 elements H-Pu.
 https://doi.org/10.1063/1.3382344

 Guidon, M; Hutter, J; VandeVondele, J. 
 JOURNAL OF CHEMICAL THEORY AND COMPUTATION, 5 (11), 3010-3021 (2009). 
 Robust Periodic Hartree-Fock Exchange for Large-Scale Simulations Using
 Gaussian Basis Sets.
 https://doi.org/10.1021/ct900494g

 Guidon, M; Schiffmann, F; Hutter, J; VandeVondele, J. 
 JOURNAL OF CHEMICAL PHYSICS, 128 (21), 214104 (2008). 
 Ab initio molecular dynamics using hybrid density functionals.
 https://doi.org/10.1063/1.2931945

 VandeVondele, J; Hutter, J. 
 JOURNAL OF CHEMICAL PHYSICS, 127 (11), 114105 (2007). 
 Gaussian basis sets for accurate calculations on molecular systems in
 gas and condensed phases.
 https://doi.org/10.1063/1.2770708

 Krack, M. 
 THEORETICAL CHEMISTRY ACCOUNTS, 114 (1-3), 145-152 (2005). 
 Pseudopotentials for H to Kr optimized for gradient-corrected
 exchange-correlation functionals.
 https://doi.org/10.1007/s00214-005-0655-y

 VandeVondele, J; Krack, M; Mohamed, F; Parrinello, M; Chassaing, T;
 Hutter, J. COMPUTER PHYSICS COMMUNICATIONS, 167 (2), 103-128 (2005). 
 QUICKSTEP: Fast and accurate density functional calculations using a
 mixed Gaussian and plane waves approach.
 https://doi.org/10.1016/j.cpc.2004.12.014

 Frigo, M; Johnson, SG. 
 PROCEEDINGS OF THE IEEE, 93 (2), 216-231 (2005). 
 The design and implementation of FFTW3.
 https://doi.org/10.1109/JPROC.2004.840301

 Iannuzzi, M; Chassaing, T; Wallman, T; Hutter, J. 
 CHIMIA, 59 (7-8), 499-503 (2005). 
 Ground and excited state density functional calculations with the
 Gaussian and augmented-plane-wave method.
 https://doi.org/10.2533/000942905777676164

 Martin,Richard L.. 
 The Journal of Chemical Physics, 118 (11), 4775-4777 (2003). 
 Natural transition orbitals.
 https://doi.org/10.1063/1.1558471

 Hartwigsen, C; Goedecker, S; Hutter, J. 
 PHYSICAL REVIEW B, 58 (7), 3641-3662 (1998). 
 Relativistic separable dual-space Gaussian pseudopotentials from H to Rn.
 https://doi.org/10.1103/PhysRevB.58.3641

 Lippert, G; Hutter, J; Parrinello, M. 
 MOLECULAR PHYSICS, 92 (3), 477-487 (1997). 
 A hybrid Gaussian and plane wave density functional scheme.
 https://doi.org/10.1080/002689797170220

 Goedecker, S; Teter, M; Hutter, J. 
 PHYSICAL REVIEW B, 54 (3), 1703-1710 (1996). 
 Separable dual-space Gaussian pseudopotentials.
 https://doi.org/10.1103/PhysRevB.54.1703

 BECKE, AD. PHYSICAL REVIEW A, 38 (6), 3098-3100 (1988). 
 DENSITY-FUNCTIONAL EXCHANGE-ENERGY APPROXIMATION WITH CORRECT
 ASYMPTOTIC-BEHAVIOR.
 https://doi.org/10.1103/PhysRevA.38.3098

 LEE, CT; YANG, WT; PARR, RG. 
 PHYSICAL REVIEW B, 37 (2), 785-789 (1988). 
 DEVELOPMENT OF THE COLLE-SALVETTI CORRELATION-ENERGY FORMULA INTO A
 FUNCTIONAL OF THE ELECTRON-DENSITY.
 https://doi.org/10.1103/PhysRevB.37.785

 VOSKO, SH; WILK, L; NUSAIR, M. 
 CANADIAN JOURNAL OF PHYSICS, 58 (8), 1200-1211 (1980). 
 ACCURATE SPIN-DEPENDENT ELECTRON LIQUID CORRELATION ENERGIES FOR LOCAL
 SPIN-DENSITY CALCULATIONS - A CRITICAL ANALYSIS.
 https://doi.org/10.1139/p80-159


 -------------------------------------------------------------------------------
 -                                                                             -
 -                                T I M I N G                                  -
 -                                                                             -
 -------------------------------------------------------------------------------
 SUBROUTINE                       CALLS  ASD         SELF TIME        TOTAL TIME
                                MAXIMUM       AVERAGE  MAXIMUM  AVERAGE  MAXIMUM
 CP2K                                 1  1.0    0.033    0.175 1662.617 1662.627
 qs_energies                          1  2.0    0.001    0.001 1662.004 1662.015
 qs_energies_properties               1  3.0    0.001    0.001 1369.137 1369.148
 tddfpt                               1  4.0    0.003    0.005 1369.136 1369.147
 tddfpt_davidson_solver               2  5.0    0.002    0.005 1364.087 1364.096
 tddfpt_compute_Aop_evects           11  6.0    0.000    0.000 1358.950 1358.959
 integrate_four_center              259  9.0    0.324    0.694 1205.267 1205.273
 integrate_four_center_main         259 10.0    0.081    0.101 1153.545 1176.813
 integrate_four_center_bin        16576 11.0 1153.464 1176.733 1153.464 1176.733
 tddfpt_apply_hfx                    11  7.0    0.004    0.004  994.420  994.426
 tddft_hfx_matrix                   220  8.0    0.004    0.005  989.269  989.275
 fhxc_kernel                         11  7.0    0.010    0.011  362.988  362.990
 scf_env_do_scf                       1  3.0    0.000    0.000  291.308  291.313
 scf_env_do_scf_inner_loop           39  4.0    0.005    0.011  291.307  291.313
 qs_ks_update_qs_env                 39  5.0    0.001    0.001  263.706  263.708
 rebuild_ks_matrix                   39  6.0    0.000    0.000  263.695  263.697
 qs_ks_build_kohn_sham_matrix        39  7.0    0.010    0.010  263.695  263.696
 hfx_ks_matrix                       39  8.0    0.002    0.002  216.017  216.018
 calculate_rho_elec                 521  8.8    1.039    1.171  183.862  183.874
 pw_transfer                       6714 10.2    0.552    0.676  165.792  166.408
 fft_wrap_pw1pw2                   6196 11.2    0.073    0.084  163.819  164.290
 fft_wrap_pw1pw2_180               3856 12.0   14.158   15.600  156.881  157.355
 fft3d_ps                          6196 13.2   67.819   73.906  120.549  122.592
 integrate_v_rspace                 259  8.2    0.011    0.013  106.335  106.894
 qs_rho_update_rho                  261  7.5    0.002    0.003  105.976  105.986
 density_rs2pw                      521  9.8    0.032    0.036   97.485  105.364
 tddfpt_apply_xc_analytic           440  8.0    1.717    1.942   99.895  100.485
 grid_collocate_task_list           521  9.8   83.619   88.488   83.619   88.488
 rs_pw_transfer                    3121 10.6    0.041    0.050   78.064   87.050
 mp_sync                           1446 10.7   45.857   72.310   45.857   72.310
 tddfpt_construct_aux_fit_densi     221  8.0    0.004    0.006   68.990   69.539
 xc_calc_2nd_deriv_analytical       440  9.0    4.996    5.649   65.409   65.598
 grid_integrate_task_list           259  9.2   57.462   61.562   57.462   61.562
 mp_alltoall_z22v                  6196 15.2   36.074   45.350   36.074   45.350
 potential_pw2rs                    259  9.2    0.042    0.048   43.511   44.091
 rs_pw_transfer_RS2PW_180           522 11.8   18.784   20.558   32.561   41.098
 mp_waitany                       73366 12.6   22.833   34.763   22.833   34.763
 -------------------------------------------------------------------------------

 The number of warnings for this run is : 3
 
 -------------------------------------------------------------------------------
  **** **** ******  **  PROGRAM ENDED AT                 2024-11-11 11:18:46.200
 ***** ** ***  *** **   PROGRAM RAN ON            bc12016.int.ets1.calculquebec.
 **    ****   ******    PROGRAM RAN BY                                  ekadashi
 ***** **    ** ** **   PROGRAM PROCESS ID                               3108356
  **** **  *******  **  PROGRAM STOPPED IN /scratch/ekadashi/Libra_CP2K/SiGe_Het
                                           ero/step2_B3LYP/SET2/job2
