 DBCSR| CPU Multiplication driver                                           XSMM
 DBCSR| Multrec recursion limit                                              512
 DBCSR| Multiplication stack size                                           1000
 DBCSR| Maximum elements for images                                    UNLIMITED
 DBCSR| Multiplicative factor virtual images                                   1
 DBCSR| Use multiplication densification                                       T
 DBCSR| Multiplication size stacks                                             3
 DBCSR| Use memory pool for CPU allocation                                     F
 DBCSR| Number of 3D layers                                               SINGLE
 DBCSR| Use MPI memory allocation                                              F
 DBCSR| Use RMA algorithm                                                      F
 DBCSR| Use Communication thread                                               T
 DBCSR| Communication thread load                                             87
 DBCSR| MPI: My node id                                                        0
 DBCSR| MPI: Number of nodes                                                  40
 DBCSR| OMP: Current number of threads                                         1
 DBCSR| OMP: Max number of threads                                             1
 DBCSR| Split modifier for TAS multiplication algorithm                  1.0E+00


  **** **** ******  **  PROGRAM STARTED AT               2024-11-11 11:48:13.375
 ***** ** ***  *** **   PROGRAM STARTED ON        bc12016.int.ets1.calculquebec.
 **    ****   ******    PROGRAM STARTED BY                              ekadashi
 ***** **    ** ** **   PROGRAM PROCESS ID                               3139114
  **** **  *******  **  PROGRAM STARTED IN /scratch/ekadashi/Libra_CP2K/SiGe_Het
                                           ero/step2_B3LYP/SET2/job2

 CP2K| version string:                                          CP2K version 9.1
 CP2K| source code revision number:                                  git:d8d7100
 CP2K| cp2kflags: omp libint fftw3 libxc parallel mpi3 scalapack xsmm plumed2   
 CP2K| is freely available from                            https://www.cp2k.org/
 CP2K| Program compiled at                       Thu 20 Jan 2022 10:47:29 PM UTC
 CP2K| Program compiled on                           build-node.computecanada.ca
 CP2K| Program compiled for                                   Linux-x86-64-gofbf
 CP2K| Data directory path    /cvmfs/soft.computecanada.ca/easybuild/software/20
 CP2K| Input file name                                       Diag_libra-2010.inp

 GLOBAL| Force Environment number                                              1
 GLOBAL| Basis set file name                                        BASIS_MOLOPT
 GLOBAL| Potential file name                                           POTENTIAL
 GLOBAL| MM Potential file name                                     MM_POTENTIAL
 GLOBAL| Coordinate file name                                     coord-2010.xyz
 GLOBAL| Method name                                                        CP2K
 GLOBAL| Project name                                            Diag_libra-2010
 GLOBAL| Run type                                                         ENERGY
 GLOBAL| FFT library                                                       FFTW3
 GLOBAL| Diagonalization library                                       ScaLAPACK
 GLOBAL| Orthonormality check for eigenvectors                          DISABLED
 GLOBAL| Matrix multiplication library                                 ScaLAPACK
 GLOBAL| All-to-all communication in single precision                          F
 GLOBAL| FFTs using library dependent lengths                                  F
 GLOBAL| Grid backend                                                       AUTO
 GLOBAL| Global print level                                               MEDIUM
 GLOBAL| MPI I/O enabled                                                       T
 GLOBAL| Total number of message passing processes                            40
 GLOBAL| Number of threads for this process                                    1
 GLOBAL| This output is from process                                           0
 GLOBAL| Stack size for threads created by OpenMP (OMP_STACKSIZE)        default
 GLOBAL| CPU model name                 Intel(R) Xeon(R) Gold 6148 CPU @ 2.40GHz
 GLOBAL| CPUID                                                              1003

 MEMORY| system memory details [Kb]
 MEMORY|                        rank 0           min           max       average
 MEMORY| MemTotal            196639208     196639208     196639208     196639208
 MEMORY| MemFree             178862996     178862772     178862996     178862777
 MEMORY| Buffers                    76            76            76            76
 MEMORY| Cached                4844132       4844128       4844132       4844128
 MEMORY| Slab                  1529936       1529916       1529936       1529916
 MEMORY| SReclaimable           345044        345044        345044        345044
 MEMORY| MemLikelyFree       184052248     184052020     184052248     184052025


 *** Fundamental physical constants (SI units) ***

 *** Literature: B. J. Mohr and B. N. Taylor,
 ***             CODATA recommended values of the fundamental physical
 ***             constants: 2006, Web Version 5.1
 ***             http://physics.nist.gov/constants

 Speed of light in vacuum [m/s]                             2.99792458000000E+08
 Magnetic constant or permeability of vacuum [N/A**2]       1.25663706143592E-06
 Electric constant or permittivity of vacuum [F/m]          8.85418781762039E-12
 Planck constant (h) [J*s]                                  6.62606896000000E-34
 Planck constant (h-bar) [J*s]                              1.05457162825177E-34
 Elementary charge [C]                                      1.60217648700000E-19
 Electron mass [kg]                                         9.10938215000000E-31
 Electron g factor [ ]                                     -2.00231930436220E+00
 Proton mass [kg]                                           1.67262163700000E-27
 Fine-structure constant                                    7.29735253760000E-03
 Rydberg constant [1/m]                                     1.09737315685270E+07
 Avogadro constant [1/mol]                                  6.02214179000000E+23
 Boltzmann constant [J/K]                                   1.38065040000000E-23
 Atomic mass unit [kg]                                      1.66053878200000E-27
 Bohr radius [m]                                            5.29177208590000E-11

 *** Conversion factors ***

 [u] -> [a.u.]                                              1.82288848426455E+03
 [Angstrom] -> [Bohr] = [a.u.]                              1.88972613288564E+00
 [a.u.] = [Bohr] -> [Angstrom]                              5.29177208590000E-01
 [a.u.] -> [s]                                              2.41888432650478E-17
 [a.u.] -> [fs]                                             2.41888432650478E-02
 [a.u.] -> [J]                                              4.35974393937059E-18
 [a.u.] -> [N]                                              8.23872205491840E-08
 [a.u.] -> [K]                                              3.15774647902944E+05
 [a.u.] -> [kJ/mol]                                         2.62549961709828E+03
 [a.u.] -> [kcal/mol]                                       6.27509468713739E+02
 [a.u.] -> [Pa]                                             2.94210107994716E+13
 [a.u.] -> [bar]                                            2.94210107994716E+08
 [a.u.] -> [atm]                                            2.90362800883016E+08
 [a.u.] -> [eV]                                             2.72113838565563E+01
 [a.u.] -> [Hz]                                             6.57968392072181E+15
 [a.u.] -> [1/cm] (wave numbers)                            2.19474631370540E+05
 [a.u./Bohr**2] -> [1/cm]                                   5.14048714338585E+03
 

 CELL_TOP| Volume [angstrom^3]:                                      6540.008810
 CELL_TOP| Vector a [angstrom    15.928     0.000     0.000   |a| =    15.927500
 CELL_TOP| Vector b [angstrom    -7.965    13.786     0.000   |b| =    15.921700
 CELL_TOP| Vector c [angstrom    -0.000     0.000    29.784   |c| =    29.783600
 CELL_TOP| Angle (b,c), alpha [degree]:                                89.999800
 CELL_TOP| Angle (a,c), beta  [degree]:                                90.000200
 CELL_TOP| Angle (a,b), gamma [degree]:                               120.015200
 CELL_TOP| Numerically orthorhombic:                                          NO

 GENERATE|  Preliminary Number of Bonds generated:                             0
 GENERATE|  Achieved consistency in connectivity generation.

 CELL| Volume [angstrom^3]:                                          6540.008810
 CELL| Vector a [angstrom]:      15.928     0.000     0.000   |a| =    15.927500
 CELL| Vector b [angstrom]:      -7.965    13.786     0.000   |b| =    15.921700
 CELL| Vector c [angstrom]:      -0.000     0.000    29.784   |c| =    29.783600
 CELL| Angle (b,c), alpha [degree]:                                    89.999800
 CELL| Angle (a,c), beta  [degree]:                                    90.000200
 CELL| Angle (a,b), gamma [degree]:                                   120.015200
 CELL| Numerically orthorhombic:                                              NO

 CELL_REF| Volume [angstrom^3]:                                      6540.008810
 CELL_REF| Vector a [angstrom    15.928     0.000     0.000   |a| =    15.927500
 CELL_REF| Vector b [angstrom    -7.965    13.786     0.000   |b| =    15.921700
 CELL_REF| Vector c [angstrom    -0.000     0.000    29.784   |c| =    29.783600
 CELL_REF| Angle (b,c), alpha [degree]:                                89.999800
 CELL_REF| Angle (a,c), beta  [degree]:                                90.000200
 CELL_REF| Angle (a,b), gamma [degree]:                               120.015200
 CELL_REF| Numerically orthorhombic:                                          NO

 *******************************************************************************
 *******************************************************************************
 **                                                                           **
 **     #####                         ##              ##                      **
 **    ##   ##            ##          ##              ##                      **
 **   ##     ##                       ##            ######                    **
 **   ##     ##  ##   ##  ##   #####  ##  ##   ####   ##    #####    #####    **
 **   ##     ##  ##   ##  ##  ##      ## ##   ##      ##   ##   ##  ##   ##   **
 **   ##  ## ##  ##   ##  ##  ##      ####     ###    ##   ######   ######    **
 **    ##  ###   ##   ##  ##  ##      ## ##      ##   ##   ##       ##        **
 **     #######   #####   ##   #####  ##  ##  ####    ##    #####   ##        **
 **           ##                                                    ##        **
 **                                                                           **
 **                                                ... make the atoms dance   **
 **                                                                           **
 **            Copyright (C) by CP2K developers group (2000-2021)             **
 **                      J. Chem. Phys. 152, 194103 (2020)                    **
 **                                                                           **
 *******************************************************************************

 DFT| Spin restricted Kohn-Sham (RKS) calculation                            RKS
 DFT| Multiplicity                                                             1
 DFT| Number of spin states                                                    1
 DFT| Charge                                                                   0
 DFT| Self-interaction correction (SIC)                                       NO
 DFT| Cutoffs: density                                              1.000000E-10
 DFT|          gradient                                             1.000000E-10
 DFT|          tau                                                  1.000000E-10
 DFT|          cutoff_smoothing_range                               0.000000E+00
 DFT| XC density smoothing                                                  NONE
 DFT| XC derivatives                                                          PW
 FUNCTIONAL| ROUTINE=NEW
 FUNCTIONAL| BECKE88:
 FUNCTIONAL| A. Becke, Phys. Rev. A 38, 3098 (1988) {LDA version}               
 FUNCTIONAL| LYP:
 FUNCTIONAL| C. Lee, W. Yang, R.G. Parr, Phys. Rev. B, 37, 785 (1988) {LDA versi
 FUNCTIONAL| on}                                                                
 FUNCTIONAL| VWN:
 FUNCTIONAL| S. H. Vosko, L. Wilk and M. Nusair, Can. J. Phys. 58, 1200 (1980) {
 FUNCTIONAL| LDA version}                                                       
 FUNCTIONAL| XALPHA:
 FUNCTIONAL| Dirac/Slater local exchange; parameter=  0.666 {LDA}               
 vdW POTENTIAL|                                                   Pair Potential
 vdW POTENTIAL|          DFT-D3 (Version 3.1)
 vdW POTENTIAL|          Potential Form: S. Grimme et al, JCP 132: 154104 (2010)
 vdW POTENTIAL|          Zero Damping
 vdW POTENTIAL|          Cutoff Radius [Bohr]:                             20.00
 vdW POTENTIAL|          s6 Scaling Factor:                               1.0000
 vdW POTENTIAL|          sr6 Scaling Factor:                              1.2610
 vdW POTENTIAL|          s8 Scaling Factor:                               1.7030
 vdW POTENTIAL|          Cutoff for CN calculation:                   0.1000E-05

 QS| Method:                                                                 GPW
 QS| Density plane wave grid type                        NON-SPHERICAL FULLSPACE
 QS| Number of grid levels:                                                    4
 QS| Density cutoff [a.u.]:                                                175.0
 QS| Multi grid cutoff [a.u.]: 1) grid level                               175.0
 QS|                           2) grid level                                58.3
 QS|                           3) grid level                                19.4
 QS|                           4) grid level                                 6.5
 QS| Grid level progression factor:                                          3.0
 QS| Relative density cutoff [a.u.]:                                        25.0
 QS| Interaction thresholds: eps_pgf_orb:                                1.0E-05
 QS|                         eps_filter_matrix:                          0.0E+00
 QS|                         eps_core_charge:                            1.0E-12
 QS|                         eps_rho_gspace:                             1.0E-10
 QS|                         eps_rho_rspace:                             1.0E-10
 QS|                         eps_gvg_rspace:                             1.0E-05
 QS|                         eps_ppl:                                    1.0E-02
 QS|                         eps_ppnl:                                   1.0E-07


 ATOMIC KIND INFORMATION

  1. Atomic kind: Si                                    Number of atoms:      32

     Orbital Basis Set                                     DZVP-MOLOPT-SR-GTH-q4

       Number of orbital shell sets:                                           1
       Number of orbital shells:                                               5
       Number of primitive Cartesian functions:                                4
       Number of Cartesian basis functions:                                   14
       Number of spherical basis functions:                                   13
       Norm type:                                                              2

       Normalised Cartesian orbitals:

                        Set   Shell   Orbital            Exponent    Coefficient

                          1       1    2s                1.256768       0.294045
                                                         0.506394      -0.015884
                                                         0.238884      -0.207657
                                                         0.087337      -0.036225

                          1       2    3s                1.256768      -1.532347
                                                         0.506394       0.524539
                                                         0.238884       0.025013
                                                         0.087337      -0.052203

                          1       3    3px               1.256768       0.152274
                                                         0.506394      -0.154145
                                                         0.238884      -0.115581
                                                         0.087337      -0.028372
                          1       3    3py               1.256768       0.152274
                                                         0.506394      -0.154145
                                                         0.238884      -0.115581
                                                         0.087337      -0.028372
                          1       3    3pz               1.256768       0.152274
                                                         0.506394      -0.154145
                                                         0.238884      -0.115581
                                                         0.087337      -0.028372

                          1       4    4px               1.256768       0.313378
                                                         0.506394      -0.415360
                                                         0.238884      -0.022539
                                                         0.087337       0.078473
                          1       4    4py               1.256768       0.313378
                                                         0.506394      -0.415360
                                                         0.238884      -0.022539
                                                         0.087337       0.078473
                          1       4    4pz               1.256768       0.313378
                                                         0.506394      -0.415360
                                                         0.238884      -0.022539
                                                         0.087337       0.078473

                          1       5    4dx2              1.256768       0.325879
                                                         0.506394       0.163831
                                                         0.238884       0.044076
                                                         0.087337       0.010608
                          1       5    4dxy              1.256768       0.564439
                                                         0.506394       0.283764
                                                         0.238884       0.076342
                                                         0.087337       0.018373
                          1       5    4dxz              1.256768       0.564439
                                                         0.506394       0.283764
                                                         0.238884       0.076342
                                                         0.087337       0.018373
                          1       5    4dy2              1.256768       0.325879
                                                         0.506394       0.163831
                                                         0.238884       0.044076
                                                         0.087337       0.010608
                          1       5    4dyz              1.256768       0.564439
                                                         0.506394       0.283764
                                                         0.238884       0.076342
                                                         0.087337       0.018373
                          1       5    4dz2              1.256768       0.325879
                                                         0.506394       0.163831
                                                         0.238884       0.044076
                                                         0.087337       0.010608

     Auxiliary Fit Basis Set                                               cFIT3

       Number of orbital shell sets:                                           4
       Number of orbital shells:                                               4
       Number of primitive Cartesian functions:                                6
       Number of Cartesian basis functions:                                    8
       Number of spherical basis functions:                                    8
       Norm type:                                                              2

       Normalised Cartesian orbitals:

                        Set   Shell   Orbital            Exponent    Coefficient

                          1       1    1s                0.096480       0.123378

                          2       1    1s                0.246960      -0.309315
                                                         1.277560       0.429908

                          3       1    1px               0.089490       0.069768
                          3       1    1py               0.089490       0.069768
                          3       1    1pz               0.089490       0.069768

                          4       1    1px               0.295630       0.313983
                                                         2.202470      -0.124968
                          4       1    1py               0.295630       0.313983
                                                         2.202470      -0.124968
                          4       1    1pz               0.295630       0.313983
                                                         2.202470      -0.124968

       Atomic covalent radius [Angstrom]:                                  1.110

       Atomic van der Waals radius [Angstrom]:                             2.100

     GTH Potential information for                                       GTH-PBE

       Description:                       Goedecker-Teter-Hutter pseudopotential
                                           Goedecker et al., PRB 54, 1703 (1996)
                                          Hartwigsen et al., PRB 58, 3641 (1998)
                                                      Krack, TCA 114, 145 (2005)

       Gaussian exponent of the core charge distribution:               2.582645
       Electronic configuration (s p d ...):                               2   2

       Parameters of the local part of the GTH pseudopotential:

                          rloc        C1          C2          C3          C4
                        0.440000   -6.269288

       Parameters of the non-local part of the GTH pseudopotential:

                   l      r(l)      h(i,j,l)

                   0    0.435634    8.951742   -2.706271
                                   -2.706271    3.493781
                   1    0.497942    2.431277

  2. Atomic kind: H                                     Number of atoms:      64

     Orbital Basis Set                                     DZVP-MOLOPT-SR-GTH-q1

       Number of orbital shell sets:                                           1
       Number of orbital shells:                                               3
       Number of primitive Cartesian functions:                                5
       Number of Cartesian basis functions:                                    5
       Number of spherical basis functions:                                    5
       Norm type:                                                              2

       Normalised Cartesian orbitals:

                        Set   Shell   Orbital            Exponent    Coefficient

                          1       1    2s               10.068468      -0.133023
                                                         2.680223      -0.177618
                                                         0.791502      -0.258419
                                                         0.239116      -0.107525
                                                         0.082193      -0.014019

                          1       2    3s               10.068468       0.344673
                                                         2.680223       1.819821
                                                         0.791502      -0.999069
                                                         0.239116       0.017430
                                                         0.082193       0.082660

                          1       3    3px              10.068468       0.155326
                                                         2.680223       0.367157
                                                         0.791502       0.311480
                                                         0.239116       0.080105
                                                         0.082193       0.033440
                          1       3    3py              10.068468       0.155326
                                                         2.680223       0.367157
                                                         0.791502       0.311480
                                                         0.239116       0.080105
                                                         0.082193       0.033440
                          1       3    3pz              10.068468       0.155326
                                                         2.680223       0.367157
                                                         0.791502       0.311480
                                                         0.239116       0.080105
                                                         0.082193       0.033440

     Auxiliary Fit Basis Set                                               cFIT3

       Number of orbital shell sets:                                           2
       Number of orbital shells:                                               2
       Number of primitive Cartesian functions:                                3
       Number of Cartesian basis functions:                                    2
       Number of spherical basis functions:                                    2
       Norm type:                                                              2

       Normalised Cartesian orbitals:

                        Set   Shell   Orbital            Exponent    Coefficient

                          1       1    1s                0.113290       0.139173

                          2       1    1s                0.551250       0.404894
                                                         3.585030       0.334062

       Atomic covalent radius [Angstrom]:                                  0.320

       Atomic van der Waals radius [Angstrom]:                             1.090

     GTH Potential information for                                       GTH-PBE

       Description:                       Goedecker-Teter-Hutter pseudopotential
                                           Goedecker et al., PRB 54, 1703 (1996)
                                          Hartwigsen et al., PRB 58, 3641 (1998)
                                                      Krack, TCA 114, 145 (2005)

       Gaussian exponent of the core charge distribution:              12.500000
       Electronic configuration (s p d ...):                                   1

       Parameters of the local part of the GTH pseudopotential:

                          rloc        C1          C2          C3          C4
                        0.200000   -4.178900    0.724463

  3. Atomic kind: Ge                                    Number of atoms:      32

     Orbital Basis Set                                     DZVP-MOLOPT-SR-GTH-q4

       Number of orbital shell sets:                                           1
       Number of orbital shells:                                               5
       Number of primitive Cartesian functions:                                4
       Number of Cartesian basis functions:                                   14
       Number of spherical basis functions:                                   13
       Norm type:                                                              2

       Normalised Cartesian orbitals:

                        Set   Shell   Orbital            Exponent    Coefficient

                          1       1    2s                3.751626      -0.120003
                                                         1.419172       0.428185
                                                         0.322428      -0.228255
                                                         0.110740      -0.068975

                          1       2    3s                3.751626       0.273885
                                                         1.419172      -0.836040
                                                         0.322428       0.584240
                                                         0.110740      -0.261045

                          1       3    3px               3.751626       0.064521
                                                         1.419172       0.216179
                                                         0.322428      -0.253385
                                                         0.110740      -0.035002
                          1       3    3py               3.751626       0.064521
                                                         1.419172       0.216179
                                                         0.322428      -0.253385
                                                         0.110740      -0.035002
                          1       3    3pz               3.751626       0.064521
                                                         1.419172       0.216179
                                                         0.322428      -0.253385
                                                         0.110740      -0.035002

                          1       4    4px               3.751626      -0.201632
                                                         1.419172      -0.391570
                                                         0.322428       0.486065
                                                         0.110740      -0.127990
                          1       4    4py               3.751626      -0.201632
                                                         1.419172      -0.391570
                                                         0.322428       0.486065
                                                         0.110740      -0.127990
                          1       4    4pz               3.751626      -0.201632
                                                         1.419172      -0.391570
                                                         0.322428       0.486065
                                                         0.110740      -0.127990

                          1       5    4dx2              3.751626      -0.158822
                                                         1.419172       0.193543
                                                         0.322428       0.178643
                                                         0.110740       0.009408
                          1       5    4dxy              3.751626      -0.275088
                                                         1.419172       0.335227
                                                         0.322428       0.309418
                                                         0.110740       0.016296
                          1       5    4dxz              3.751626      -0.275088
                                                         1.419172       0.335227
                                                         0.322428       0.309418
                                                         0.110740       0.016296
                          1       5    4dy2              3.751626      -0.158822
                                                         1.419172       0.193543
                                                         0.322428       0.178643
                                                         0.110740       0.009408
                          1       5    4dyz              3.751626      -0.275088
                                                         1.419172       0.335227
                                                         0.322428       0.309418
                                                         0.110740       0.016296
                          1       5    4dz2              3.751626      -0.158822
                                                         1.419172       0.193543
                                                         0.322428       0.178643
                                                         0.110740       0.009408

     Auxiliary Fit Basis Set                                               cFIT6

       Number of orbital shell sets:                                           4
       Number of orbital shells:                                               4
       Number of primitive Cartesian functions:                                6
       Number of Cartesian basis functions:                                    8
       Number of spherical basis functions:                                    8
       Norm type:                                                              2

       Normalised Cartesian orbitals:

                        Set   Shell   Orbital            Exponent    Coefficient

                          1       1    1s                0.110750       0.136826

                          2       1    1s                0.308366      -0.415436
                                                         1.178430       0.610195

                          3       1    1px               0.110745       0.091064
                          3       1    1py               0.110745       0.091064
                          3       1    1pz               0.110745       0.091064

                          4       1    1px               0.339941       0.397306
                                                         1.591237      -0.423312
                          4       1    1py               0.339941       0.397306
                                                         1.591237      -0.423312
                          4       1    1pz               0.339941       0.397306
                                                         1.591237      -0.423312

       Atomic covalent radius [Angstrom]:                                  1.220

       Atomic van der Waals radius [Angstrom]:                             2.110

     GTH Potential information for                                       GTH-PBE

       Description:                       Goedecker-Teter-Hutter pseudopotential
                                           Goedecker et al., PRB 54, 1703 (1996)
                                          Hartwigsen et al., PRB 58, 3641 (1998)
                                                      Krack, TCA 114, 145 (2005)

       Gaussian exponent of the core charge distribution:               1.714678
       Electronic configuration (s p d ...):                               2   2

       Parameters of the local part of the GTH pseudopotential:

                          rloc        C1          C2          C3          C4
                        0.540000

       Parameters of the non-local part of the GTH pseudopotential:

                   l      r(l)      h(i,j,l)

                   0    0.421865    7.510241   -0.588108   -1.447976
                                   -0.588108   -1.595888    3.738657
                                   -1.447976    3.738657   -2.967467
                   1    0.567529    0.913860    0.546875
                                    0.546875   -0.647072
                   2    0.813914    0.197177


 MOLECULE KIND INFORMATION


 All atoms are their own molecule, skipping detailed information


 TOTAL NUMBERS AND MAXIMUM NUMBERS

  Total number of            - Atomic kinds:                                   3
                             - Atoms:                                        128
                             - Shell sets:                                   128
                             - Shells:                                       512
                             - Primitive Cartesian functions:                576
                             - Cartesian basis functions:                   1216
                             - Spherical basis functions:                   1152

  Maximum angular momentum of- Orbital basis functions:                        2
                             - Local part of the GTH pseudopotential:          2
                             - Non-local part of the GTH pseudopotential:      4

  AUX_FIT ADMM-Basis: 
  Total number of            - Shell sets:                                   384
                             - Shells:                                       384
                             - Primitive Cartesian functions:                576
                             - Cartesian basis functions:                    640
                             - Spherical basis functions:                    640
                               Maximum angular momentum                        1


 MODULE QUICKSTEP:  ATOMIC COORDINATES IN angstrom

 Atom  Kind  Element       X           Y           Z          Z(eff)       Mass
    1   1 Si  14       0.279607    2.344261    1.838452       4.0000     28.0855
    2   1 Si  14       2.211826    1.108809    2.351332       4.0000     28.0855
    3   1 Si  14       4.070577    2.276568    1.548175       4.0000     28.0855
    4   1 Si  14       6.011464    1.163505    2.347873       4.0000     28.0855
    5   1 Si  14      -1.868524    5.684365    1.858673       4.0000     28.0855
    6   1 Si  14       0.080776    4.520025    2.659253       4.0000     28.0855
    7   1 Si  14       1.981638    5.816760    1.842674       4.0000     28.0855
    8   1 Si  14       4.081572    4.607146    2.336194       4.0000     28.0855
    9   2 H    1       0.454887    2.630089    0.346563       1.0000      1.0079
   10   2 H    1       2.368103    0.940982    3.822465       1.0000      1.0079
   11   2 H    1       1.795796    3.415537    5.389265       1.0000      1.0079
   12   2 H    1       3.699075    2.346639    8.930019       1.0000      1.0079
   13   2 H    1       4.088080    2.293841    0.012539       1.0000      1.0079
   14   2 H    1       5.648819    0.770675    3.761672       1.0000      1.0079
   15   2 H    1      -1.626797    3.470700    5.009692       1.0000      1.0079
   16   2 H    1      -0.305675    2.850595    9.264632       1.0000      1.0079
   17   2 H    1      -1.737559    5.452019    0.369366       1.0000      1.0079
   18   2 H    1       0.188795    4.516609    4.128888       1.0000      1.0079
   19   2 H    1       4.040163    0.017807    5.089242       1.0000      1.0079
   20   2 H    1       1.757247    6.073721    9.097204       1.0000      1.0079
   21   2 H    1       1.829683    5.872377    0.385679       1.0000      1.0079
   22   2 H    1       4.269752    4.499456    3.786942       1.0000      1.0079
   23   2 H    1       0.120332    0.254671    5.649820       1.0000      1.0079
   24   2 H    1      -2.250301    6.041661    8.720936       1.0000      1.0079
   25   3 Ge  32       1.857013    3.657227    6.846130       4.0000     72.6400
   26   3 Ge  32       3.874382    2.388533    7.378385       4.0000     72.6400
   27   3 Ge  32      -1.947597    3.423812    6.556260       4.0000     72.6400
   28   3 Ge  32      -0.124999    2.609078    7.808102       4.0000     72.6400
   29   3 Ge  32       3.966182    0.079922    6.657893       4.0000     72.6400
   30   3 Ge  32       1.781594    5.959103    7.561679       4.0000     72.6400
   31   3 Ge  32       0.043499    0.249342    7.163343       4.0000     72.6400
   32   3 Ge  32      -2.201531    5.776093    7.237454       4.0000     72.6400
   33   1 Si  14       8.070486    2.295445    1.775702       4.0000     28.0855
   34   1 Si  14      10.080560    1.154757    2.295542       4.0000     28.0855
   35   1 Si  14      12.178668    2.299300    1.810560       4.0000     28.0855
   36   1 Si  14      14.225937    1.198695    2.440287       4.0000     28.0855
   37   1 Si  14       6.142408    5.743632    1.641919       4.0000     28.0855
   38   1 Si  14       8.154099    4.638847    2.451361       4.0000     28.0855
   39   1 Si  14      10.047356    5.743618    1.631380       4.0000     28.0855
   40   1 Si  14      11.973154    4.559518    2.314053       4.0000     28.0855
   41   2 H    1       7.894313    2.613397    0.255598       1.0000      1.0079
   42   2 H    1       9.933513    1.006458    3.823572       1.0000      1.0079
   43   2 H    1       9.408741    3.146161    5.188735       1.0000      1.0079
   44   2 H    1      12.102172    2.057292    8.724814       1.0000      1.0079
   45   2 H    1      12.132728    2.231566    0.288822       1.0000      1.0079
   46   2 H    1      14.172569    0.863241    3.899730       1.0000      1.0079
   47   2 H    1       6.228202    3.388213    5.176415       1.0000      1.0079
   48   2 H    1       7.941781    2.419532    9.155951       1.0000      1.0079
   49   2 H    1       6.246413    5.874953    0.138317       1.0000      1.0079
   50   2 H    1       8.011733    4.704291    3.920991       1.0000      1.0079
   51   2 H    1      12.482508   -0.787230    5.330589       1.0000      1.0079
   52   2 H    1      10.161249    5.861438    8.744499       1.0000      1.0079
   53   2 H    1       9.864011    5.464405    0.199424       1.0000      1.0079
   54   2 H    1      11.968499    4.553156    3.804826       1.0000      1.0079
   55   2 H    1       7.975950    0.085790    5.086837       1.0000      1.0079
   56   2 H    1       5.857621    6.054663    8.984732       1.0000      1.0079
   57   3 Ge  32       9.967622    3.244465    6.620159       4.0000     72.6400
   58   3 Ge  32      12.108719    2.108620    7.214956       4.0000     72.6400
   59   3 Ge  32       6.076252    3.264694    6.737174       4.0000     72.6400
   60   3 Ge  32       8.064491    2.241571    7.630905       4.0000     72.6400
   61   3 Ge  32      12.221301   -0.349169    6.817244       4.0000     72.6400
   62   3 Ge  32       9.759555    5.627043    7.282294       4.0000     72.6400
   63   3 Ge  32       7.940909   -0.003766    6.689637       4.0000     72.6400
   64   3 Ge  32       5.868482    5.674577    7.499314       4.0000     72.6400
   65   1 Si  14      -3.829585    9.159429    1.501397       4.0000     28.0855
   66   1 Si  14      -1.793511    8.084807    2.322336       4.0000     28.0855
   67   1 Si  14       0.139777    9.213486    1.514069       4.0000     28.0855
   68   1 Si  14       2.224165    8.244328    2.159964       4.0000     28.0855
   69   1 Si  14      -5.856022   12.650598    1.420734       4.0000     28.0855
   70   1 Si  14      -3.927312   11.453968    2.114414       4.0000     28.0855
   71   1 Si  14      -1.793406   12.709689    1.523611       4.0000     28.0855
   72   1 Si  14       0.157571   11.542584    2.278303       4.0000     28.0855
   73   2 H    1      -4.046164    8.832824    0.029296       1.0000      1.0079
   74   2 H    1      -1.929339    8.333431    3.779767       1.0000      1.0079
   75   2 H    1      -1.657232   10.449849    5.020887       1.0000      1.0079
   76   2 H    1      -0.421974    8.846739    9.065249       1.0000      1.0079
   77   2 H    1      -0.067707    9.425812    0.075636       1.0000      1.0079
   78   2 H    1       2.144265    8.384980    3.710673       1.0000      1.0079
   79   2 H    1      -6.727065   10.419023    5.535991       1.0000      1.0079
   80   2 H    1      -3.888351    8.847276    8.625667       1.0000      1.0079
   81   2 H    1      -5.884991   12.863494    0.008234       1.0000      1.0079
   82   2 H    1      -3.974779   11.107368    3.581786       1.0000      1.0079
   83   2 H    1       0.108246    7.509733    5.052549       1.0000      1.0079
   84   2 H    1      -2.216031   12.625244    8.882625       1.0000      1.0079
   85   2 H    1      -1.946643   12.626281    0.028456       1.0000      1.0079
   86   2 H    1       0.292007   11.697783    3.732448       1.0000      1.0079
   87   2 H    1      -4.141080    6.681746    4.786892       1.0000      1.0079
   88   2 H    1      -5.535396   12.621272    9.201795       1.0000      1.0079
   89   3 Ge  32      -2.062056   10.302702    6.559246       4.0000     72.6400
   90   3 Ge  32      -0.256246    9.090446    7.567831       4.0000     72.6400
   91   3 Ge  32      -6.217596   10.222599    6.925157       4.0000     72.6400
   92   3 Ge  32      -4.086048    9.053884    7.164435       4.0000     72.6400
   93   3 Ge  32      -0.261072    6.978024    6.445924       4.0000     72.6400
   94   3 Ge  32      -2.035069   12.679154    7.356208       4.0000     72.6400
   95   3 Ge  32      -4.182503    6.819923    6.296216       4.0000     72.6400
   96   3 Ge  32      -5.922525   12.714495    7.723152       4.0000     72.6400
   97   1 Si  14       4.207396    9.258542    1.286333       4.0000     28.0855
   98   1 Si  14       6.044344    8.055108    2.190461       4.0000     28.0855
   99   1 Si  14       8.059382    9.029565    1.437136       4.0000     28.0855
  100   1 Si  14      10.095628    8.094255    2.270360       4.0000     28.0855
  101   1 Si  14       2.064823   12.627436    1.431411       4.0000     28.0855
  102   1 Si  14       4.215292   11.534393    2.001683       4.0000     28.0855
  103   1 Si  14       6.231799   12.670828    1.401176       4.0000     28.0855
  104   1 Si  14       8.121026   11.349445    1.968208       4.0000     28.0855
  105   2 H    1       4.067852    9.095961   -0.222373       1.0000      1.0079
  106   2 H    1       5.901240    8.257791    3.735938       1.0000      1.0079
  107   2 H    1       6.073586   10.155506    5.879979       1.0000      1.0079
  108   2 H    1       8.132753    9.143760    9.745879       1.0000      1.0079
  109   2 H    1       8.108841    8.786004   -0.043970       1.0000      1.0079
  110   2 H    1       9.985944    8.079288    3.751443       1.0000      1.0079
  111   2 H    1       1.909677   10.064391    5.418368       1.0000      1.0079
  112   2 H    1       3.498925    8.919693    9.223508       1.0000      1.0079
  113   2 H    1       2.040229   12.751110   -0.055230       1.0000      1.0079
  114   2 H    1       4.250991   11.291486    3.501603       1.0000      1.0079
  115   2 H    1       8.083987    7.646249    5.470395       1.0000      1.0079
  116   2 H    1       6.156554   12.835443    9.539529       1.0000      1.0079
  117   2 H    1       6.388785   12.875093   -0.058851       1.0000      1.0079
  118   2 H    1       8.160591   11.225737    3.495742       1.0000      1.0079
  119   2 H    1       3.854406    6.801553    5.261854       1.0000      1.0079
  120   2 H    1       2.155156   12.583599    9.023389       1.0000      1.0079
  121   3 Ge  32       6.019399   10.350615    7.393908       4.0000     72.6400
  122   3 Ge  32       7.918030    9.002499    8.240888       4.0000     72.6400
  123   3 Ge  32       1.789426   10.190440    6.922653       4.0000     72.6400
  124   3 Ge  32       3.862890    9.074058    7.709972       4.0000     72.6400
  125   3 Ge  32       7.794064    6.908066    6.828131       4.0000     72.6400
  126   3 Ge  32       6.225749   12.628287    8.021240       4.0000     72.6400
  127   3 Ge  32       3.887845    6.893442    6.851443       4.0000     72.6400
  128   3 Ge  32       2.057562   12.614884    7.482300       4.0000     72.6400




 SCF PARAMETERS         Density guess:                                   RESTART
                        --------------------------------------------------------
                        max_scf:                                              50
                        max_scf_history:                                       0
                        max_diis:                                              4
                        --------------------------------------------------------
                        eps_scf:                                        1.00E-06
                        eps_scf_history:                                0.00E+00
                        eps_diis:                                       1.00E-01
                        eps_eigval:                                     1.00E-05
                        --------------------------------------------------------
                        level_shift [a.u.]:                                 0.00
                        added MOs                                        50    0
                        --------------------------------------------------------
                        Mixing method:                            BROYDEN_MIXING
                                                charge density mixing in g-space
                        --------------------------------------------------------
                        No outer SCF

 PW_GRID| Information for grid number                                          1
 PW_GRID| Grid distributed over                                    40 processors
 PW_GRID| Real space group dimensions                                    40    1
 PW_GRID| the grid is blocked:                                                NO
 PW_GRID| Cutoff [a.u.]                                                    175.0
 PW_GRID| spherical cutoff:                                                   NO
 PW_GRID|   Bounds   1            -90      89                Points:         180
 PW_GRID|   Bounds   2            -90      89                Points:         180
 PW_GRID|   Bounds   3           -180     179                Points:         360
 PW_GRID| Volume element (a.u.^3)  0.3784E-02     Volume (a.u.^3)     44134.1676
 PW_GRID| Grid span                                                    FULLSPACE
 PW_GRID|   Distribution                         Average         Max         Min
 PW_GRID|   G-Vectors                           291600.0      291600      291600
 PW_GRID|   G-Rays                                1620.0        1620        1620
 PW_GRID|   Real Space Points                   291600.0      324000      259200

 PW_GRID| Information for grid number                                          2
 PW_GRID| Number of the reference grid                                         1
 PW_GRID| Grid distributed over                                    40 processors
 PW_GRID| Real space group dimensions                                    40    1
 PW_GRID| the grid is blocked:                                                NO
 PW_GRID| Cutoff [a.u.]                                                     58.3
 PW_GRID| spherical cutoff:                                                   NO
 PW_GRID|   Bounds   1            -54      53                Points:         108
 PW_GRID|   Bounds   2            -54      53                Points:         108
 PW_GRID|   Bounds   3           -100      99                Points:         200
 PW_GRID| Volume element (a.u.^3)  0.1892E-01     Volume (a.u.^3)     44134.1676
 PW_GRID| Grid span                                                    FULLSPACE
 PW_GRID|   Distribution                         Average         Max         Min
 PW_GRID|   G-Vectors                            58320.0       59724       57024
 PW_GRID|   G-Rays                                 540.0         553         528
 PW_GRID|   Real Space Points                    58320.0       64800       43200

 PW_GRID| Information for grid number                                          3
 PW_GRID| Number of the reference grid                                         1
 PW_GRID| Grid distributed over                                    40 processors
 PW_GRID| Real space group dimensions                                    40    1
 PW_GRID| the grid is blocked:                                                NO
 PW_GRID| Cutoff [a.u.]                                                     19.4
 PW_GRID| spherical cutoff:                                                   NO
 PW_GRID|   Bounds   1            -30      29                Points:          60
 PW_GRID|   Bounds   2            -30      29                Points:          60
 PW_GRID|   Bounds   3            -60      59                Points:         120
 PW_GRID| Volume element (a.u.^3)  0.1022         Volume (a.u.^3)     44134.1676
 PW_GRID| Grid span                                                    FULLSPACE
 PW_GRID|   Distribution                         Average         Max         Min
 PW_GRID|   G-Vectors                            10800.0       11040       10380
 PW_GRID|   G-Rays                                 180.0         184         173
 PW_GRID|   Real Space Points                    10800.0       14400        7200

 PW_GRID| Information for grid number                                          4
 PW_GRID| Number of the reference grid                                         1
 PW_GRID| Grid distributed over                                    40 processors
 PW_GRID| Real space group dimensions                                     5    8
 PW_GRID| the grid is blocked:                                                NO
 PW_GRID| Cutoff [a.u.]                                                      6.5
 PW_GRID| spherical cutoff:                                                   NO
 PW_GRID|   Bounds   1            -18      17                Points:          36
 PW_GRID|   Bounds   2            -18      17                Points:          36
 PW_GRID|   Bounds   3            -36      35                Points:          72
 PW_GRID| Volume element (a.u.^3)  0.4730         Volume (a.u.^3)     44134.1676
 PW_GRID| Grid span                                                    FULLSPACE
 PW_GRID|   Distribution                         Average         Max         Min
 PW_GRID|   G-Vectors                             2332.8        2520        2160
 PW_GRID|   G-Rays                                  64.8          70          60
 PW_GRID|   Real Space Points                     2332.8        2880        2016

 POISSON| Solver                                                        PERIODIC
 POISSON| Periodicity                                                        XYZ

 RS_GRID| Information for grid number                                          1
 RS_GRID|   Bounds   1            -90      89                Points:         180
 RS_GRID|   Bounds   2            -90      89                Points:         180
 RS_GRID|   Bounds   3           -180     179                Points:         360
 RS_GRID| Real space distribution over                                  4 groups
 RS_GRID| Real space distribution along direction                              2
 RS_GRID| Border size                                                         38
 RS_GRID| Real space distribution over                                 10 groups
 RS_GRID| Real space distribution along direction                              3
 RS_GRID| Border size                                                         38
 RS_GRID|   Distribution                         Average         Max         Min
 RS_GRID|   Planes                                 121.0         121         121
 RS_GRID|   Distribution                         Average         Max         Min
 RS_GRID|   Planes                                 112.0         112         112

 RS_GRID| Information for grid number                                          2
 RS_GRID|   Bounds   1            -54      53                Points:         108
 RS_GRID|   Bounds   2            -54      53                Points:         108
 RS_GRID|   Bounds   3           -100      99                Points:         200
 RS_GRID| Real space distribution over                                  4 groups
 RS_GRID| Real space distribution along direction                              2
 RS_GRID| Border size                                                         38
 RS_GRID| Real space distribution over                                 10 groups
 RS_GRID| Real space distribution along direction                              3
 RS_GRID| Border size                                                         38
 RS_GRID|   Distribution                         Average         Max         Min
 RS_GRID|   Planes                                 103.0         103         103
 RS_GRID|   Distribution                         Average         Max         Min
 RS_GRID|   Planes                                  96.0          96          96

 RS_GRID| Information for grid number                                          3
 RS_GRID|   Bounds   1            -30      29                Points:          60
 RS_GRID|   Bounds   2            -30      29                Points:          60
 RS_GRID|   Bounds   3            -60      59                Points:         120
 RS_GRID| Real space fully replicated
 RS_GRID| Group size                                                           1

 RS_GRID| Information for grid number                                          4
 RS_GRID|   Bounds   1            -18      17                Points:          36
 RS_GRID|   Bounds   2            -18      17                Points:          36
 RS_GRID|   Bounds   3            -36      35                Points:          72
 RS_GRID| Real space fully replicated
 RS_GRID| Group size                                                           1

  HFX_INFO| Replica ID:                                                        1
  HFX_INFO| FRACTION:                                               0.2000000000
  HFX_INFO| Interaction Potential:                                     TRUNCATED
  HFX_INFO| Cutoff Radius [angstrom]:                               6.0000000000
  HFX_INFO| EPS_SCHWARZ:                                                 1.0E-08
  HFX_INFO| EPS_SCHWARZ_FORCES                                           1.0E-06
  HFX_INFO| EPS_STORAGE_SCALING:                                         1.0E-01
  HFX_INFO| NBINS:                                                            64
  HFX_INFO| BLOCK_SIZE:                                                        2
  HFX_INFO| NUMBER_OF_SHELLS:                                               AUTO
  HFX_INFO| Number of periodic shells considered:                             -1
  HFX_INFO| Number of periodic cells considered:                              27


 Number of electrons:                                                        320
 Number of occupied orbitals:                                                160
 Number of molecular orbitals:                                               210

 Number of orbital functions:                                               1152
 Number of independent orbital functions:                                   1152

 Extrapolation method: initial_guess

 *** WARNING in qs_initial_guess.F:309 :: User requested to restart the    ***
 *** wavefunction from the file named: Diag_libra-2010-RESTART.wfn. This   ***
 *** file does not exist. Please check the existence of the file or change ***
 *** properly the value of the keyword WFN_RESTART_FILE_NAME. Calculation  ***
 *** continues using ATOMIC GUESS.                                         ***


 Atomic guess: The first density matrix is obtained in terms of atomic orbitals
               and electronic configurations assigned to each atomic kind

 Guess for atomic kind: Si

 Electronic structure
    Total number of core electrons                                         10.00
    Total number of valence electrons                                       4.00
    Total number of electrons                                              14.00
    Multiplicity                                                   not specified
    S   [  2.00  2.00] 2.00
    P   [  6.00] 2.00


 *******************************************************************************
                  Iteration          Convergence                     Energy [au]
 *******************************************************************************
                          1        0.526541E-01                  -3.659692963728
                          2        0.125823E-01                  -3.661785675622
                          3        0.408986E-04                  -3.661911567360
                          4        0.675570E-07                  -3.661911568709

 Energy components [Hartree]           Total Energy ::           -3.661911568709
                                        Band Energy ::           -0.941881516273
                                     Kinetic Energy ::            1.409736465412
                                   Potential Energy ::           -5.071648034121
                                      Virial (-V/T) ::            3.597585902439
                                        Core Energy ::           -5.690149137281
                                          XC Energy ::           -0.992569238249
                                     Coulomb Energy ::            3.020806806821
                       Total Pseudopotential Energy ::           -7.143143335066
                       Local Pseudopotential Energy ::           -8.006124475851
                    Nonlocal Pseudopotential Energy ::            0.862981140786
                                        Confinement ::            0.432577323720

 Orbital energies  State     L     Occupation   Energy[a.u.]          Energy[eV]

                       1     0          2.000      -0.357276           -9.721984

                       1     1          2.000      -0.113664           -3.092965


 Total Electron Density at R=0:                                         0.000026

 Guess for atomic kind: H

 Electronic structure
    Total number of core electrons                                          0.00
    Total number of valence electrons                                       1.00
    Total number of electrons                                               1.00
    Multiplicity                                                   not specified
    S      1.00


 *******************************************************************************
                  Iteration          Convergence                     Energy [au]
 *******************************************************************************
                          1        0.250972E-02                  -0.375256815885
                          2        0.570752E-04                  -0.375258666164
                          3        0.832405E-09                  -0.375258667122

 Energy components [Hartree]           Total Energy ::           -0.375258667122
                                        Band Energy ::           -0.076317618391
                                     Kinetic Energy ::            0.771356566341
                                   Potential Energy ::           -1.146615233463
                                      Virial (-V/T) ::            1.486491829455
                                        Core Energy ::           -0.456090715790
                                          XC Energy ::           -0.314218627334
                                     Coulomb Energy ::            0.395050676003
                       Total Pseudopotential Energy ::           -1.238482237174
                       Local Pseudopotential Energy ::           -1.238482237174
                    Nonlocal Pseudopotential Energy ::            0.000000000000
                                        Confinement ::            0.110349550431

 Orbital energies  State     L     Occupation   Energy[a.u.]          Energy[eV]

                       1     0          1.000      -0.076318           -2.076708


 Total Electron Density at R=0:                                         0.425022

 Guess for atomic kind: Ge

 Electronic structure
    Total number of core electrons                                         28.00
    Total number of valence electrons                                       4.00
    Total number of electrons                                              32.00
    Multiplicity                                                   not specified
    S   [  2.00  2.00  2.00] 2.00
    P   [  6.00  6.00] 2.00
    D   [ 10.00]


 *******************************************************************************
                  Iteration          Convergence                     Energy [au]
 *******************************************************************************
                          1        0.142224                      -3.669910672039
                          2        0.333188E-01                  -3.687823698339
                          3        0.522642E-04                  -3.688875018994
                          4        0.333285E-05                  -3.688875020047
                          5        0.154106E-05                  -3.688875020053
                          6        0.996835E-06                  -3.688875020055

 Energy components [Hartree]           Total Energy ::           -3.688875020055
                                        Band Energy ::           -0.991816616960
                                     Kinetic Energy ::            1.446010121603
                                   Potential Energy ::           -5.134885141658
                                      Virial (-V/T) ::            3.551071368687
                                        Core Energy ::           -5.696847161393
                                          XC Energy ::           -0.988567154744
                                     Coulomb Energy ::            2.996539296082
                       Total Pseudopotential Energy ::           -7.185566698510
                       Local Pseudopotential Energy ::           -7.622158091196
                    Nonlocal Pseudopotential Energy ::            0.436591392686
                                        Confinement ::            0.427094155139

 Orbital energies  State     L     Occupation   Energy[a.u.]          Energy[eV]

                       1     0          2.000      -0.391724          -10.659354

                       1     1          2.000      -0.104184           -2.834997


 Total Electron Density at R=0:                                         0.000078
 Re-scaling the density matrix to get the right number of electrons
                  # Electrons              Trace(P)               Scaling factor
                          320               320.000                        1.000


 SCF WAVEFUNCTION OPTIMIZATION

  Step     Update method      Time    Convergence         Total energy    Change
  ------------------------------------------------------------------------------

  HFX_MEM_INFO| Est. max. program size before HFX [MiB]:                     519

 *** WARNING in hfx_energy_potential.F:591 :: The Kohn Sham matrix is not  ***
 *** 100% occupied. This may result in incorrect Hartree-Fock results. Try ***
 *** to decrease EPS_PGF_ORB and EPS_FILTER_MATRIX in the QS section. For  ***
 *** more information see FAQ: https://www.cp2k.org/faq:hfx_eps_warning    ***

  HFX_MEM_INFO| Number of cart. primitive ERI's calculated:          16138193535
  HFX_MEM_INFO| Number of sph. ERI's calculated:                      4161436199
  HFX_MEM_INFO| Number of sph. ERI's stored in-core:                  4161435853
  HFX_MEM_INFO| Number of sph. ERI's stored on disk:                           0
  HFX_MEM_INFO| Number of sph. ERI's calculated on the fly:                    0
  HFX_MEM_INFO| Total memory consumption ERI's RAM [MiB]:                   6539
  HFX_MEM_INFO| Whereof max-vals [MiB]:                                      278
  HFX_MEM_INFO| Total compression factor ERI's RAM:                         4.86
  HFX_MEM_INFO| Total memory consumption ERI's disk [MiB]:                     0
  HFX_MEM_INFO| Total compression factor ERI's disk:                        0.00
  HFX_MEM_INFO| Size of density/Fock matrix [MiB]:                             2
  HFX_MEM_INFO| Size of buffers [MiB]:                                         1
  HFX_MEM_INFO| Number of periodic image cells considered:                    27
  HFX_MEM_INFO| Est. max. program size after HFX  [MiB]:                     682

     1 NoMix/Diag. 0.30E+00   46.3     1.43554674      -266.0951955158 -2.66E+02
     2 Broy./Diag. 0.30E+00    6.6     0.61549584      -277.4645618375 -1.14E+01
     3 Broy./Diag. 0.30E+00    6.3     0.40170166      -281.8803890906 -4.42E+00
     4 Broy./Diag. 0.30E+00    6.3     0.08611113      -284.6296369937 -2.75E+00
     5 Broy./Diag. 0.30E+00    6.4     0.03205277      -286.4689410345 -1.84E+00
     6 Broy./Diag. 0.30E+00    6.3     0.02667803      -287.4946225699 -1.03E+00
     7 Broy./Diag. 0.30E+00    6.5     0.00582606      -287.8342660347 -3.40E-01
     8 Broy./Diag. 0.30E+00    6.3     0.01048269      -287.7685805319  6.57E-02
     9 Broy./Diag. 0.30E+00    6.6     0.00837930      -287.8333633217 -6.48E-02
    10 Broy./Diag. 0.30E+00    6.3     0.00626507      -287.8611948815 -2.78E-02
    11 Broy./Diag. 0.30E+00    6.3     0.00494800      -287.8439648858  1.72E-02
    12 Broy./Diag. 0.30E+00    6.5     0.00399968      -287.9234092454 -7.94E-02
    13 Broy./Diag. 0.30E+00    6.4     0.00176932      -287.9654699042 -4.21E-02
    14 Broy./Diag. 0.30E+00    6.5     0.00193400      -287.9669316273 -1.46E-03
    15 Broy./Diag. 0.30E+00    6.3     0.00062748      -287.9702886943 -3.36E-03
    16 Broy./Diag. 0.30E+00    6.6     0.00164497      -287.9612346727  9.05E-03
    17 Broy./Diag. 0.30E+00    6.3     0.00046454      -287.9606617166  5.73E-04
    18 Broy./Diag. 0.30E+00    6.3     0.00073973      -287.9584116627  2.25E-03
    19 Broy./Diag. 0.30E+00    6.5     0.00026659      -287.9600764296 -1.66E-03
    20 Broy./Diag. 0.30E+00    6.8     0.00026594      -287.9658264962 -5.75E-03
    21 Broy./Diag. 0.30E+00    6.5     0.00015672      -287.9675167199 -1.69E-03
    22 Broy./Diag. 0.30E+00    6.3     0.00003248      -287.9674228875  9.38E-05
    23 Broy./Diag. 0.30E+00    6.5     0.00011506      -287.9672970346  1.26E-04
    24 Broy./Diag. 0.30E+00    6.3     0.00010042      -287.9678106336 -5.14E-04
    25 Broy./Diag. 0.30E+00    6.3     0.00007064      -287.9682561558 -4.46E-04
    26 Broy./Diag. 0.30E+00    6.7     0.00004594      -287.9681657981  9.04E-05
    27 Broy./Diag. 0.30E+00    6.3     0.00003981      -287.9681805374 -1.47E-05
    28 Broy./Diag. 0.30E+00    6.5     0.00001327      -287.9681922826 -1.17E-05
    29 Broy./Diag. 0.30E+00    6.4     0.00002778      -287.9686498911 -4.58E-04
    30 Broy./Diag. 0.30E+00    6.5     0.00003577      -287.9688632353 -2.13E-04
    31 Broy./Diag. 0.30E+00    6.3     0.00000758      -287.9686665181  1.97E-04
    32 Broy./Diag. 0.30E+00    6.3     0.00000469      -287.9685696569  9.69E-05
    33 Broy./Diag. 0.30E+00    6.6     0.00001187      -287.9685203860  4.93E-05
    34 Broy./Diag. 0.30E+00    6.3     0.00000354      -287.9685263162 -5.93E-06
    35 Broy./Diag. 0.30E+00    6.5     0.00000354      -287.9685964425 -7.01E-05
    36 Broy./Diag. 0.30E+00    6.3     0.00000161      -287.9686506251 -5.42E-05
    37 Broy./Diag. 0.30E+00    6.5     0.00000143      -287.9686666773 -1.61E-05
    38 Broy./Diag. 0.30E+00    6.4     0.00000091      -287.9686874667 -2.08E-05

  *** SCF run converged in    38 steps ***


  Electronic density on regular grids:       -319.9999999982        0.0000000018
  Core density on regular grids:              319.9999999278       -0.0000000722
  Total charge density on r-space grids:       -0.0000000704
  Total charge density g-space grids:          -0.0000000704

  Overlap energy of the core charge distribution:               0.00002304097288
  Self energy of the core charge distribution:               -685.99374549079380
  Core Hamiltonian energy:                                    163.78249450824268
  Hartree energy:                                             331.68698054799523
  Exchange-correlation energy:                                -79.82626358226520
  Hartree-Fock Exchange energy:                               -17.17030468295658
  Dispersion energy:                                           -0.44787180788648

  Total energy:                                              -287.96868746669128

   Calculate PDOS at iteration step                                  0

              ---- PDOS: start iteration on the KS states --- 

 *******************************************************************************
 **                                                                           **
 **         ######## #######   #######   ######## #######  ########           **
 **            ##    ##     ## ##     ## ##       ##   ##     ##              **
 **            ##    ##     ## ##     ## ######   #######     ##              **
 **            ##    ##     ## ##     ## ##       ##          ##              **
 **            ##    #######   #######   ##       ##          ##              **
 **                                                                           **
 *******************************************************************************
 
 -------------------------------------------------------------------------------
 -                            TDDFPT Initial Guess                             -
 -------------------------------------------------------------------------------
          State         Occupied      ->      Virtual          Excitation
          number         orbital              orbital          energy (eV)
 -------------------------------------------------------------------------------
             1              160                  161              1.97771
             2              159                  161              2.06628
             3              160                  162              2.11231
             4              160                  163              2.19985
             5              159                  162              2.20088
             6              160                  164              2.24614
             7              159                  163              2.28842
             8              160                  165              2.32851
             9              159                  164              2.33471
            10              159                  165              2.41707
            11              160                  166              2.52490
            12              160                  167              2.57655
            13              160                  168              2.60525
            14              159                  166              2.61347
            15              160                  169              2.65653
            16              159                  167              2.66511
            17              160                  170              2.67742
            18              159                  168              2.69382
            19              160                  171              2.72947
            20              159                  169              2.74509

      Number of active states:                                     158720
 -------------------------------------------------------------------------------
 
 -------------------------------------------------------------------------------
 -                      TDDFPT WAVEFUNCTION OPTIMIZATION                       -
 -------------------------------------------------------------------------------

          Step            Time         Convergence           Conv. states
 -------------------------------------------------------------------------------

    State    Exc. energy (eV)      Convergence (eV)
        1       1.6613449            -3.1636E-01
        2       1.7478201            -3.1846E-01
        3       1.9708909            -1.4142E-01
        4       2.0631423            -1.3671E-01
        5       2.0997798            -1.0110E-01
        6       2.1288655            -1.1727E-01
        7       2.1971464            -9.1276E-02
        8       2.2055221            -1.2298E-01
        9       2.2230006            -1.1171E-01
       10       2.2856947            -1.3138E-01
       11       2.3102641            -2.1464E-01
       12       2.3427585            -2.3379E-01
       13       2.3893256            -2.1593E-01
       14       2.4537051            -1.5976E-01
       15       2.5268660            -1.2966E-01
       16       2.5273609            -1.3775E-01
       17       2.5706001            -1.0682E-01
       18       2.6095892            -8.4230E-02
       19       2.6401995            -8.9272E-02
       20       2.6584630            -8.6632E-02

             1           123.8          1.1703E-02                      0

    State    Exc. energy (eV)      Convergence (eV)
        1       1.6229731            -3.8372E-02
        2       1.7079314            -3.9889E-02
        3       1.9657207            -5.1702E-03
        4       2.0576789            -5.4634E-03
        5       2.0750422            -2.4738E-02
        6       2.1168591            -1.2006E-02
        7       2.1695738            -2.7573E-02
        8       2.1895622            -1.5960E-02
        9       2.2027463            -2.0254E-02
       10       2.2547937            -3.0901E-02
       11       2.2811635            -2.9101E-02
       12       2.3137819            -2.8977E-02
       13       2.3647584            -2.4567E-02
       14       2.4162076            -3.7497E-02
       15       2.4416425            -8.5224E-02
       16       2.5003043            -2.7057E-02
       17       2.5266312            -4.3969E-02
       18       2.5355522            -7.4037E-02
       19       2.5752976            -6.4902E-02
       20       2.5922786            -6.6184E-02

             2           124.4          3.1319E-03                      0

    State    Exc. energy (eV)      Convergence (eV)
        1       1.6164079            -6.5652E-03
        2       1.7006213            -7.3102E-03
        3       1.9653500            -3.7068E-04
        4       2.0571840            -4.9485E-04
        5       2.0719196            -3.1226E-03
        6       2.1156471            -1.2120E-03
        7       2.1656046            -3.9692E-03
        8       2.1858720            -3.6902E-03
        9       2.1993374            -3.4089E-03
       10       2.2500196            -4.7741E-03
       11       2.2757395            -5.4240E-03
       12       2.3091107            -4.6712E-03
       13       2.3596415            -5.1169E-03
       14       2.3967736            -1.9434E-02
       15       2.4241941            -1.7448E-02
       16       2.4580837            -4.2221E-02
       17       2.4666973            -5.9934E-02
       18       2.5209764            -1.4576E-02
       19       2.5386111            -3.6687E-02
       20       2.5619934            -3.0285E-02

             3           123.8          2.2025E-03                      0

[...]
 flops     5 x    18 x    13             19169280       0.0%    100.0%      0.0%
 flops     8 x     2 x    18             42681600       0.0%    100.0%      0.0%
 flops     2 x     8 x    18             42900480       0.0%    100.0%      0.0%
 flops    13 x    18 x    13             49840128       0.0%    100.0%      0.0%
 flops     5 x     5 x    18             72867600       0.0%    100.0%      0.0%
 flops     5 x     1 x     5             77876400       0.0%    100.0%      0.0%
 flops     2 x     2 x    32            106113024       0.0%    100.0%      0.0%
 flops     8 x     8 x    18            182108160       0.0%    100.0%      0.0%
 flops     5 x    13 x    18            186900480       0.0%    100.0%      0.0%
 flops    13 x     5 x    18            186900480       0.0%    100.0%      0.0%
 flops     5 x     1 x    13            202874880       0.0%    100.0%      0.0%
 flops    13 x     1 x     5            202874880       0.0%    100.0%      0.0%
 flops   283 x   111 x    32            402086400       0.0%    100.0%      0.0%
 flops   286 x   111 x    32            406348800       0.0%    100.0%      0.0%
 flops   288 x   111 x    32            409190400       0.0%    100.0%      0.0%
 flops   295 x   111 x    32            419136000       0.0%    100.0%      0.0%
 flops     8 x     2 x    32            455270400       0.0%    100.0%      0.0%
 flops     2 x     8 x    32            457605120       0.0%    100.0%      0.0%
 flops    13 x    13 x    18            493534080       0.0%    100.0%      0.0%
 flops    13 x     1 x    13            527474688       0.0%    100.0%      0.0%
 flops     5 x     5 x    32            777254400       0.0%    100.0%      0.0%
 flops   283 x   113 x    32           1227993600       0.0%    100.0%      0.0%
 flops   286 x   113 x    32           1241011200       0.0%    100.0%      0.0%
 flops   288 x   113 x    32           1249689600       0.0%    100.0%      0.0%
 flops   283 x   116 x    32           1260595200       0.0%    100.0%      0.0%
 flops   286 x   116 x    32           1273958400       0.0%    100.0%      0.0%
 flops   295 x   113 x    32           1280064000       0.0%    100.0%      0.0%
 flops   283 x   118 x    32           1282329600       0.0%    100.0%      0.0%
 flops   288 x   116 x    32           1282867200       0.0%    100.0%      0.0%
 flops   286 x   118 x    32           1295923200       0.0%    100.0%      0.0%
 flops   288 x   118 x    32           1304985600       0.0%    100.0%      0.0%
 flops   295 x   116 x    32           1314048000       0.0%    100.0%      0.0%
 flops   295 x   118 x    32           1336704000       0.0%    100.0%      0.0%
 flops     8 x     8 x    32           1942487040       0.0%    100.0%      0.0%
 flops     5 x    13 x    32           1993605120       0.0%    100.0%      0.0%
 flops    13 x     5 x    32           1993605120       0.0%    100.0%      0.0%
 flops    13 x    13 x    32           5264363520       0.0%    100.0%      0.0%
 flops     2 x    32 x     2           7242301440       0.0%    100.0%      0.0%
 flops     5 x    32 x     5          30735219200       0.0%    100.0%      0.0%
 flops     2 x    32 x     8          31710412800       0.0%    100.0%      0.0%
 flops     8 x    32 x     2          31710412800       0.0%    100.0%      0.0%
 flops     5 x    32 x    13          80067952640       0.0%    100.0%      0.0%
 flops    13 x    32 x     5          80067952640       0.0%    100.0%      0.0%
 flops     8 x    32 x     8         132875550720       0.0%    100.0%      0.0%
 flops    13 x    32 x    13         208176676864       0.0%    100.0%      0.0%
 flops inhomo. stacks                           0       0.0%      0.0%      0.0%
 flops total                       634.888193E+09       0.0%    100.0%      0.0%
 flops max/rank                     26.999210E+09       0.0%    100.0%      0.0%
 matmuls inhomo. stacks                         0       0.0%      0.0%      0.0%
 matmuls total                          210225516       0.0%    100.0%      0.0%
 number of processed stacks               2411040       0.0%    100.0%      0.0%
 average stack size                                     0.0      87.2       0.0
 marketing flops                   646.365905E+09
 -------------------------------------------------------------------------------
 # multiplications                           1647
 max memory usage/rank             857.808896E+06
 # max total images/rank                        5
 # max 3D layers                                1
 # MPI messages exchanged                 2174040
 MPI messages size (bytes):
  total size                       141.691273E+09
  min size                           0.000000E+00
  max size                         176.800000E+03
  average size                      65.174180E+03
 MPI breakdown and total messages size (bytes):
             size <=      128              589266                        0
       128 < size <=     8192               22920                 10993536
      8192 < size <=    32768              423258               8078360832
     32768 < size <=   131072              666996              66237416352
    131072 < size <=  4194304              471600              67352968800
   4194304 < size <= 16777216                   0                        0
  16777216 < size                               0                        0
 -------------------------------------------------------------------------------

 *** WARNING in dbcsr_mm.F:294 :: Using a non-square number of MPI ranks ***
 *** might lead to poor performance. Used ranks: 40 Suggested: 36 81     ***

 -------------------------------------------------------------------------------
 -                                                                             -
 -                      DBCSR MESSAGE PASSING PERFORMANCE                      -
 -                                                                             -
 -------------------------------------------------------------------------------
 ROUTINE             CALLS      AVE VOLUME [Bytes]
 MP_Bcast               49                     12.
 MP_Allreduce         5625                      8.
 MP_Alltoall         51804                  32488.
 MP_ISend           124938                  32140.
 MP_IRecv           131292                  30105.
 -------------------------------------------------------------------------------

 -------------------------------------------------------------------------------
 -                                                                             -
 -                                GRID STATISTICS                              -
 -                                                                             -
 -------------------------------------------------------------------------------
 LP    KERNEL             BACKEND                              COUNT     PERCENT
 1     collocate general  REF                                9685046      16.37%
 3     collocate general  REF                                9520420      16.09%
 3     integrate general  REF                                9447186      15.97%
 0     collocate general  REF                                7932074      13.41%
 2     collocate general  REF                                7899605      13.35%
 2     integrate general  REF                                4971918       8.40%
 4     collocate general  REF                                4871100       8.23%
 4     integrate general  REF                                4833630       8.17%
 -------------------------------------------------------------------------------

 MEMORY| Estimated peak process memory [MiB]                                 819

 -------------------------------------------------------------------------------
 ----                             MULTIGRID INFO                            ----
 -------------------------------------------------------------------------------
 count for grid        1:         222326          cutoff [a.u.]          175.00
 count for grid        2:         200162          cutoff [a.u.]           58.33
 count for grid        3:         186243          cutoff [a.u.]           19.44
 count for grid        4:          73860          cutoff [a.u.]            6.48
 total gridlevel count  :         682591

 -------------------------------------------------------------------------------
 -                                                                             -
 -                         MESSAGE PASSING PERFORMANCE                         -
 -                                                                             -
 -------------------------------------------------------------------------------

 ROUTINE             CALLS      AVE VOLUME [Bytes]
 MP_Group                4
 MP_Bcast              698                1594566.
 MP_Allreduce        26477                    266.
 MP_Sync              1439
 MP_Alltoall          7756               10375598.
 MP_ISendRecv        80808                  63197.
 MP_Wait            161709
 MP_comm_split          71
 MP_ISend            73084                 299668.
 MP_IRecv            73904                 297445.
 MP_Recv               378                 149650.
 -------------------------------------------------------------------------------


 -------------------------------------------------------------------------------
 -                                                                             -
 -                           R E F E R E N C E S                               -
 -                                                                             -
 -------------------------------------------------------------------------------
 
 CP2K version 9.1, the CP2K developers group (2021).
 CP2K is freely available from https://www.cp2k.org/ .

 Kuehne,Thomas D.; Iannuzzi,Marcella; Del Ben,Mauro;
 Rybkin,Vladimir V.; Seewald,Patrick; Stein,Frederick; Laino,Teodoro;
 Khaliullin,Rustam Z.; Schuett,Ole; Schiffmann,Florian; Golze,Dorothea;
 Wilhelm,Jan; Chulkov,Sergey; Bani-Hashemian,Mohammad Hossein;
 Weber,Valery; Borstnik,Urban; Taillefumier,Mathieu;
 Jakobovits,Alice Shoshana; Lazzaro,Alfio; Pabst,Hans; Mueller,Tiziano;
 Schade,Robert; Guidon,Manuel; Andermatt,Samuel; Holmberg,Nico;
 Schenter,Gregory K.; Hehn,Anna; Bussy,Augustin; Belleflamme,Fabian;
 Tabacchi,Gloria; Gloess,Andreas; Lass,Michael; Bethune,Iain;
 Mundy,Christopher J.; Plessl,Christian; Watkins,Matt;
 VandeVondele,Joost; Krack,Matthias; Hutter,Juerg. 
 The Journal of Chemical Physics, 152 (19), (2020). 
 CP2K: An electronic structure and molecular dynamics software package -
 Quickstep: Efficient and accurate electronic structure calculations.
 https://doi.org/10.1063/5.0007045

 Goerigk, Lars; Hansen, Andreas; Bauer, Christoph; Ehrlich, Stephan;
 Najibi, Asim; Grimme, Stefan. , 19 (48), (2017). 
 A look at the density functional theory zoo with the advanced GMTKN55 database
 for general main group thermochemistry, kinetics and noncovalent interactions.
 https://doi.org/10.1039/C7CP04913G

 Schuett, Ole; Messmer, Peter; Hutter, Juerg; VandeVondele, Joost. 
 Electronic Structure Calculations on Graphics Processing Units, John
 Wiley & Sons, Ltd, 173-190 (2016). 
 GPU-Accelerated Sparse Matrix-Matrix Multiplication for
 Linear Scaling Density Functional Theory.
 https://doi.org/10.1002/9781118670712.ch8

 Heinecke, A; Henry, G; Hutchinson, M; Pabst, H. 
 Proceedings of Intl. Supercomputing Conference, 981-991 (2016). 
 LIBXSMM: Accelerating Small Matrix Multiplications
 by Runtime Code Generation.
 https://doi.org/10.1109/SC.2016.83

 Borstnik, U; VandeVondele, J; Weber, V; Hutter, J. 
 PARALLEL COMPUTING, 40 (5-6), 47-58 (2014). 
 Sparse matrix multiplication: The distributed block-compressed sparse
 row library.
 https://doi.org/10.1016/j.parco.2014.03.012

 Hutter, J; Iannuzzi, M; Schiffmann, F; VandeVondele, J. 
 WIREs Comput Mol Sci., 4 (1), 15-25 (2014). 
 CP2K: atomistic simulations of condensed matter systems.
 https://doi.org/10.1002/wcms.1159

 Grimme, S; Ehrlich, S; Goerigk, L. 
 JOURNAL OF COMPUTATIONAL CHEMISTRY, 32, 1456 (2011). 
 Effect of the damping function in dispersion corrected density functional theory.
 https://doi.org/10.1002/jcc.21759

 Guidon, M; Hutter, J; VandeVondele, J. 
 JOURNAL OF CHEMICAL THEORY AND COMPUTATION, 6 (8), 2348-2364 (2010). 
 Auxiliary Density Matrix Methods for Hartree-Fock Exchange Calculations.
 https://doi.org/10.1021/ct1002225

 Grimme, S; Antony, J; Ehrlich, S; Krieg, H. 
 JOURNAL OF CHEMICAL PHYSICS, 132 (15), 154104 (2010). 
 A consistent and accurate ab initio parametrization of density
 functional dispersion correction (DFT-D) for the 94 elements H-Pu.
 https://doi.org/10.1063/1.3382344

 Guidon, M; Hutter, J; VandeVondele, J. 
 JOURNAL OF CHEMICAL THEORY AND COMPUTATION, 5 (11), 3010-3021 (2009). 
 Robust Periodic Hartree-Fock Exchange for Large-Scale Simulations Using
 Gaussian Basis Sets.
 https://doi.org/10.1021/ct900494g

 Guidon, M; Schiffmann, F; Hutter, J; VandeVondele, J. 
 JOURNAL OF CHEMICAL PHYSICS, 128 (21), 214104 (2008). 
 Ab initio molecular dynamics using hybrid density functionals.
 https://doi.org/10.1063/1.2931945

 VandeVondele, J; Hutter, J. 
 JOURNAL OF CHEMICAL PHYSICS, 127 (11), 114105 (2007). 
 Gaussian basis sets for accurate calculations on molecular systems in
 gas and condensed phases.
 https://doi.org/10.1063/1.2770708

 Krack, M. 
 THEORETICAL CHEMISTRY ACCOUNTS, 114 (1-3), 145-152 (2005). 
 Pseudopotentials for H to Kr optimized for gradient-corrected
 exchange-correlation functionals.
 https://doi.org/10.1007/s00214-005-0655-y

 VandeVondele, J; Krack, M; Mohamed, F; Parrinello, M; Chassaing, T;
 Hutter, J. COMPUTER PHYSICS COMMUNICATIONS, 167 (2), 103-128 (2005). 
 QUICKSTEP: Fast and accurate density functional calculations using a
 mixed Gaussian and plane waves approach.
 https://doi.org/10.1016/j.cpc.2004.12.014

 Frigo, M; Johnson, SG. 
 PROCEEDINGS OF THE IEEE, 93 (2), 216-231 (2005). 
 The design and implementation of FFTW3.
 https://doi.org/10.1109/JPROC.2004.840301

 Iannuzzi, M; Chassaing, T; Wallman, T; Hutter, J. 
 CHIMIA, 59 (7-8), 499-503 (2005). 
 Ground and excited state density functional calculations with the
 Gaussian and augmented-plane-wave method.
 https://doi.org/10.2533/000942905777676164

 Martin,Richard L.. 
 The Journal of Chemical Physics, 118 (11), 4775-4777 (2003). 
 Natural transition orbitals.
 https://doi.org/10.1063/1.1558471

 Hartwigsen, C; Goedecker, S; Hutter, J. 
 PHYSICAL REVIEW B, 58 (7), 3641-3662 (1998). 
 Relativistic separable dual-space Gaussian pseudopotentials from H to Rn.
 https://doi.org/10.1103/PhysRevB.58.3641

 Lippert, G; Hutter, J; Parrinello, M. 
 MOLECULAR PHYSICS, 92 (3), 477-487 (1997). 
 A hybrid Gaussian and plane wave density functional scheme.
 https://doi.org/10.1080/002689797170220

 Goedecker, S; Teter, M; Hutter, J. 
 PHYSICAL REVIEW B, 54 (3), 1703-1710 (1996). 
 Separable dual-space Gaussian pseudopotentials.
 https://doi.org/10.1103/PhysRevB.54.1703

 BECKE, AD. PHYSICAL REVIEW A, 38 (6), 3098-3100 (1988). 
 DENSITY-FUNCTIONAL EXCHANGE-ENERGY APPROXIMATION WITH CORRECT
 ASYMPTOTIC-BEHAVIOR.
 https://doi.org/10.1103/PhysRevA.38.3098

 LEE, CT; YANG, WT; PARR, RG. 
 PHYSICAL REVIEW B, 37 (2), 785-789 (1988). 
 DEVELOPMENT OF THE COLLE-SALVETTI CORRELATION-ENERGY FORMULA INTO A
 FUNCTIONAL OF THE ELECTRON-DENSITY.
 https://doi.org/10.1103/PhysRevB.37.785

 VOSKO, SH; WILK, L; NUSAIR, M. 
 CANADIAN JOURNAL OF PHYSICS, 58 (8), 1200-1211 (1980). 
 ACCURATE SPIN-DEPENDENT ELECTRON LIQUID CORRELATION ENERGIES FOR LOCAL
 SPIN-DENSITY CALCULATIONS - A CRITICAL ANALYSIS.
 https://doi.org/10.1139/p80-159


 -------------------------------------------------------------------------------
 -                                                                             -
 -                                T I M I N G                                  -
 -                                                                             -
 -------------------------------------------------------------------------------
 SUBROUTINE                       CALLS  ASD         SELF TIME        TOTAL TIME
                                MAXIMUM       AVERAGE  MAXIMUM  AVERAGE  MAXIMUM
 CP2K                                 1  1.0    0.037    0.129 1659.338 1659.345
 qs_energies                          1  2.0    0.000    0.000 1658.736 1658.743
 qs_energies_properties               1  3.0    0.000    0.001 1372.061 1372.072
 tddfpt                               1  4.0    0.001    0.002 1372.061 1372.072
 tddfpt_davidson_solver               2  5.0    0.003    0.006 1366.362 1366.368
 tddfpt_compute_Aop_evects           11  6.0    0.002    0.002 1361.311 1361.317
 integrate_four_center              258  9.0    0.322    0.701 1203.187 1203.192
 integrate_four_center_main         258 10.0    0.081    0.106 1149.575 1178.036
 integrate_four_center_bin        16512 11.0 1149.494 1177.955 1149.494 1177.955
 tddfpt_apply_hfx                    11  7.0    0.005    0.006  996.796  996.800
 tddft_hfx_matrix                   220  8.0    0.006    0.007  991.639  991.643
 fhxc_kernel                         11  7.0    0.012    0.013  362.751  362.753
 scf_env_do_scf                       1  3.0    0.000    0.000  285.218  285.372
 scf_env_do_scf_inner_loop           38  4.0    0.001    0.006  285.218  285.371
 qs_ks_update_qs_env                 38  5.0    0.000    0.000  256.893  256.894
 rebuild_ks_matrix                   38  6.0    0.000    0.000  256.882  256.884
 qs_ks_build_kohn_sham_matrix        38  7.0    0.005    0.006  256.882  256.884
 hfx_ks_matrix                       38  8.0    0.001    0.001  211.567  211.568
 calculate_rho_elec                 519  8.8    1.035    1.160  185.658  185.692
 pw_transfer                       6689 10.2    0.560    0.840  164.636  165.457
 fft_wrap_pw1pw2                   6173 11.2    0.073    0.079  162.644  163.446
 fft_wrap_pw1pw2_180               3842 12.0   14.084   15.563  155.555  156.271
 fft3d_ps                          6173 13.2   67.686   72.924  119.493  122.385
 qs_rho_update_rho                  260  7.5    0.002    0.002  107.919  107.949
 density_rs2pw                      519  9.8    0.032    0.036   98.322  106.162
 integrate_v_rspace                 258  8.1    0.010    0.010  104.290  104.812
 tddfpt_apply_xc_analytic           440  8.0    1.719    1.943   99.186   99.804
 grid_collocate_task_list           519  9.8   83.440   88.422   83.440   88.422
 rs_pw_transfer                    3109 10.6    0.041    0.050   77.568   85.947
 mp_sync                           1439 10.7   47.773   75.259   47.773   75.259
 tddfpt_construct_aux_fit_densi     221  8.0    0.004    0.006   68.488   68.990
 xc_calc_2nd_deriv_analytical       440  9.0    5.020    5.639   65.415   65.593
 grid_integrate_task_list           258  9.1   57.262   60.313   57.262   60.313
 mp_alltoall_z22v                  6173 15.2   35.108   45.696   35.108   45.696
 potential_pw2rs                    258  9.1    0.041    0.045   42.538   43.052
 rs_pw_transfer_RS2PW_180           520 11.8   18.273   20.519   33.151   41.386
 mp_waitany                       73084 12.6   23.259   35.303   23.259   35.303
 -------------------------------------------------------------------------------

 The number of warnings for this run is : 3
 
 -------------------------------------------------------------------------------
  **** **** ******  **  PROGRAM ENDED AT                 2024-11-11 12:15:59.906
 ***** ** ***  *** **   PROGRAM RAN ON            bc12016.int.ets1.calculquebec.
 **    ****   ******    PROGRAM RAN BY                                  ekadashi
 ***** **    ** ** **   PROGRAM PROCESS ID                               3139114
  **** **  *******  **  PROGRAM STOPPED IN /scratch/ekadashi/Libra_CP2K/SiGe_Het
                                           ero/step2_B3LYP/SET2/job2
