 DBCSR| CPU Multiplication driver                                           XSMM
 DBCSR| Multrec recursion limit                                              512
 DBCSR| Multiplication stack size                                           1000
 DBCSR| Maximum elements for images                                    UNLIMITED
 DBCSR| Multiplicative factor virtual images                                   1
 DBCSR| Use multiplication densification                                       T
 DBCSR| Multiplication size stacks                                             3
 DBCSR| Use memory pool for CPU allocation                                     F
 DBCSR| Number of 3D layers                                               SINGLE
 DBCSR| Use MPI memory allocation                                              F
 DBCSR| Use RMA algorithm                                                      F
 DBCSR| Use Communication thread                                               T
 DBCSR| Communication thread load                                             87
 DBCSR| MPI: My node id                                                        0
 DBCSR| MPI: Number of nodes                                                  40
 DBCSR| OMP: Current number of threads                                         1
 DBCSR| OMP: Max number of threads                                             1
 DBCSR| Split modifier for TAS multiplication algorithm                  1.0E+00


  **** **** ******  **  PROGRAM STARTED AT               2024-11-11 12:45:05.172
 ***** ** ***  *** **   PROGRAM STARTED ON        bc12016.int.ets1.calculquebec.
 **    ****   ******    PROGRAM STARTED BY                              ekadashi
 ***** **    ** ** **   PROGRAM PROCESS ID                               3170497
  **** **  *******  **  PROGRAM STARTED IN /scratch/ekadashi/Libra_CP2K/SiGe_Het
                                           ero/step2_B3LYP/SET2/job2

 CP2K| version string:                                          CP2K version 9.1
 CP2K| source code revision number:                                  git:d8d7100
 CP2K| cp2kflags: omp libint fftw3 libxc parallel mpi3 scalapack xsmm plumed2   
 CP2K| is freely available from                            https://www.cp2k.org/
 CP2K| Program compiled at                       Thu 20 Jan 2022 10:47:29 PM UTC
 CP2K| Program compiled on                           build-node.computecanada.ca
 CP2K| Program compiled for                                   Linux-x86-64-gofbf
 CP2K| Data directory path    /cvmfs/soft.computecanada.ca/easybuild/software/20
 CP2K| Input file name                                       Diag_libra-2012.inp

 GLOBAL| Force Environment number                                              1
 GLOBAL| Basis set file name                                        BASIS_MOLOPT
 GLOBAL| Potential file name                                           POTENTIAL
 GLOBAL| MM Potential file name                                     MM_POTENTIAL
 GLOBAL| Coordinate file name                                     coord-2012.xyz
 GLOBAL| Method name                                                        CP2K
 GLOBAL| Project name                                            Diag_libra-2012
 GLOBAL| Run type                                                         ENERGY
 GLOBAL| FFT library                                                       FFTW3
 GLOBAL| Diagonalization library                                       ScaLAPACK
 GLOBAL| Orthonormality check for eigenvectors                          DISABLED
 GLOBAL| Matrix multiplication library                                 ScaLAPACK
 GLOBAL| All-to-all communication in single precision                          F
 GLOBAL| FFTs using library dependent lengths                                  F
 GLOBAL| Grid backend                                                       AUTO
 GLOBAL| Global print level                                               MEDIUM
 GLOBAL| MPI I/O enabled                                                       T
 GLOBAL| Total number of message passing processes                            40
 GLOBAL| Number of threads for this process                                    1
 GLOBAL| This output is from process                                           0
 GLOBAL| Stack size for threads created by OpenMP (OMP_STACKSIZE)        default
 GLOBAL| CPU model name                 Intel(R) Xeon(R) Gold 6148 CPU @ 2.40GHz
 GLOBAL| CPUID                                                              1003

 MEMORY| system memory details [Kb]
 MEMORY|                        rank 0           min           max       average
 MEMORY| MemTotal            196639208     196639208     196639208     196639208
 MEMORY| MemFree             178863292     178863292     178863292     178863292
 MEMORY| Buffers                    76            76            76            76
 MEMORY| Cached                4843420       4843420       4843420       4843420
 MEMORY| Slab                  1528668       1528668       1528668       1528668
 MEMORY| SReclaimable           346220        346220        346220        346220
 MEMORY| MemLikelyFree       184053008     184053008     184053008     184053008


 *** Fundamental physical constants (SI units) ***

 *** Literature: B. J. Mohr and B. N. Taylor,
 ***             CODATA recommended values of the fundamental physical
 ***             constants: 2006, Web Version 5.1
 ***             http://physics.nist.gov/constants

 Speed of light in vacuum [m/s]                             2.99792458000000E+08
 Magnetic constant or permeability of vacuum [N/A**2]       1.25663706143592E-06
 Electric constant or permittivity of vacuum [F/m]          8.85418781762039E-12
 Planck constant (h) [J*s]                                  6.62606896000000E-34
 Planck constant (h-bar) [J*s]                              1.05457162825177E-34
 Elementary charge [C]                                      1.60217648700000E-19
 Electron mass [kg]                                         9.10938215000000E-31
 Electron g factor [ ]                                     -2.00231930436220E+00
 Proton mass [kg]                                           1.67262163700000E-27
 Fine-structure constant                                    7.29735253760000E-03
 Rydberg constant [1/m]                                     1.09737315685270E+07
 Avogadro constant [1/mol]                                  6.02214179000000E+23
 Boltzmann constant [J/K]                                   1.38065040000000E-23
 Atomic mass unit [kg]                                      1.66053878200000E-27
 Bohr radius [m]                                            5.29177208590000E-11

 *** Conversion factors ***

 [u] -> [a.u.]                                              1.82288848426455E+03
 [Angstrom] -> [Bohr] = [a.u.]                              1.88972613288564E+00
 [a.u.] = [Bohr] -> [Angstrom]                              5.29177208590000E-01
 [a.u.] -> [s]                                              2.41888432650478E-17
 [a.u.] -> [fs]                                             2.41888432650478E-02
 [a.u.] -> [J]                                              4.35974393937059E-18
 [a.u.] -> [N]                                              8.23872205491840E-08
 [a.u.] -> [K]                                              3.15774647902944E+05
 [a.u.] -> [kJ/mol]                                         2.62549961709828E+03
 [a.u.] -> [kcal/mol]                                       6.27509468713739E+02
 [a.u.] -> [Pa]                                             2.94210107994716E+13
 [a.u.] -> [bar]                                            2.94210107994716E+08
 [a.u.] -> [atm]                                            2.90362800883016E+08
 [a.u.] -> [eV]                                             2.72113838565563E+01
 [a.u.] -> [Hz]                                             6.57968392072181E+15
 [a.u.] -> [1/cm] (wave numbers)                            2.19474631370540E+05
 [a.u./Bohr**2] -> [1/cm]                                   5.14048714338585E+03
 

 CELL_TOP| Volume [angstrom^3]:                                      6540.008810
 CELL_TOP| Vector a [angstrom    15.928     0.000     0.000   |a| =    15.927500
 CELL_TOP| Vector b [angstrom    -7.965    13.786     0.000   |b| =    15.921700
 CELL_TOP| Vector c [angstrom    -0.000     0.000    29.784   |c| =    29.783600
 CELL_TOP| Angle (b,c), alpha [degree]:                                89.999800
 CELL_TOP| Angle (a,c), beta  [degree]:                                90.000200
 CELL_TOP| Angle (a,b), gamma [degree]:                               120.015200
 CELL_TOP| Numerically orthorhombic:                                          NO

 GENERATE|  Preliminary Number of Bonds generated:                             0
 GENERATE|  Achieved consistency in connectivity generation.

 CELL| Volume [angstrom^3]:                                          6540.008810
 CELL| Vector a [angstrom]:      15.928     0.000     0.000   |a| =    15.927500
 CELL| Vector b [angstrom]:      -7.965    13.786     0.000   |b| =    15.921700
 CELL| Vector c [angstrom]:      -0.000     0.000    29.784   |c| =    29.783600
 CELL| Angle (b,c), alpha [degree]:                                    89.999800
 CELL| Angle (a,c), beta  [degree]:                                    90.000200
 CELL| Angle (a,b), gamma [degree]:                                   120.015200
 CELL| Numerically orthorhombic:                                              NO

 CELL_REF| Volume [angstrom^3]:                                      6540.008810
 CELL_REF| Vector a [angstrom    15.928     0.000     0.000   |a| =    15.927500
 CELL_REF| Vector b [angstrom    -7.965    13.786     0.000   |b| =    15.921700
 CELL_REF| Vector c [angstrom    -0.000     0.000    29.784   |c| =    29.783600
 CELL_REF| Angle (b,c), alpha [degree]:                                89.999800
 CELL_REF| Angle (a,c), beta  [degree]:                                90.000200
 CELL_REF| Angle (a,b), gamma [degree]:                               120.015200
 CELL_REF| Numerically orthorhombic:                                          NO

 *******************************************************************************
 *******************************************************************************
 **                                                                           **
 **     #####                         ##              ##                      **
 **    ##   ##            ##          ##              ##                      **
 **   ##     ##                       ##            ######                    **
 **   ##     ##  ##   ##  ##   #####  ##  ##   ####   ##    #####    #####    **
 **   ##     ##  ##   ##  ##  ##      ## ##   ##      ##   ##   ##  ##   ##   **
 **   ##  ## ##  ##   ##  ##  ##      ####     ###    ##   ######   ######    **
 **    ##  ###   ##   ##  ##  ##      ## ##      ##   ##   ##       ##        **
 **     #######   #####   ##   #####  ##  ##  ####    ##    #####   ##        **
 **           ##                                                    ##        **
 **                                                                           **
 **                                                ... make the atoms dance   **
 **                                                                           **
 **            Copyright (C) by CP2K developers group (2000-2021)             **
 **                      J. Chem. Phys. 152, 194103 (2020)                    **
 **                                                                           **
 *******************************************************************************

 DFT| Spin restricted Kohn-Sham (RKS) calculation                            RKS
 DFT| Multiplicity                                                             1
 DFT| Number of spin states                                                    1
 DFT| Charge                                                                   0
 DFT| Self-interaction correction (SIC)                                       NO
 DFT| Cutoffs: density                                              1.000000E-10
 DFT|          gradient                                             1.000000E-10
 DFT|          tau                                                  1.000000E-10
 DFT|          cutoff_smoothing_range                               0.000000E+00
 DFT| XC density smoothing                                                  NONE
 DFT| XC derivatives                                                          PW
 FUNCTIONAL| ROUTINE=NEW
 FUNCTIONAL| BECKE88:
 FUNCTIONAL| A. Becke, Phys. Rev. A 38, 3098 (1988) {LDA version}               
 FUNCTIONAL| LYP:
 FUNCTIONAL| C. Lee, W. Yang, R.G. Parr, Phys. Rev. B, 37, 785 (1988) {LDA versi
 FUNCTIONAL| on}                                                                
 FUNCTIONAL| VWN:
 FUNCTIONAL| S. H. Vosko, L. Wilk and M. Nusair, Can. J. Phys. 58, 1200 (1980) {
 FUNCTIONAL| LDA version}                                                       
 FUNCTIONAL| XALPHA:
 FUNCTIONAL| Dirac/Slater local exchange; parameter=  0.666 {LDA}               
 vdW POTENTIAL|                                                   Pair Potential
 vdW POTENTIAL|          DFT-D3 (Version 3.1)
 vdW POTENTIAL|          Potential Form: S. Grimme et al, JCP 132: 154104 (2010)
 vdW POTENTIAL|          Zero Damping
 vdW POTENTIAL|          Cutoff Radius [Bohr]:                             20.00
 vdW POTENTIAL|          s6 Scaling Factor:                               1.0000
 vdW POTENTIAL|          sr6 Scaling Factor:                              1.2610
 vdW POTENTIAL|          s8 Scaling Factor:                               1.7030
 vdW POTENTIAL|          Cutoff for CN calculation:                   0.1000E-05

 QS| Method:                                                                 GPW
 QS| Density plane wave grid type                        NON-SPHERICAL FULLSPACE
 QS| Number of grid levels:                                                    4
 QS| Density cutoff [a.u.]:                                                175.0
 QS| Multi grid cutoff [a.u.]: 1) grid level                               175.0
 QS|                           2) grid level                                58.3
 QS|                           3) grid level                                19.4
 QS|                           4) grid level                                 6.5
 QS| Grid level progression factor:                                          3.0
 QS| Relative density cutoff [a.u.]:                                        25.0
 QS| Interaction thresholds: eps_pgf_orb:                                1.0E-05
 QS|                         eps_filter_matrix:                          0.0E+00
 QS|                         eps_core_charge:                            1.0E-12
 QS|                         eps_rho_gspace:                             1.0E-10
 QS|                         eps_rho_rspace:                             1.0E-10
 QS|                         eps_gvg_rspace:                             1.0E-05
 QS|                         eps_ppl:                                    1.0E-02
 QS|                         eps_ppnl:                                   1.0E-07


 ATOMIC KIND INFORMATION

  1. Atomic kind: Si                                    Number of atoms:      32

     Orbital Basis Set                                     DZVP-MOLOPT-SR-GTH-q4

       Number of orbital shell sets:                                           1
       Number of orbital shells:                                               5
       Number of primitive Cartesian functions:                                4
       Number of Cartesian basis functions:                                   14
       Number of spherical basis functions:                                   13
       Norm type:                                                              2

       Normalised Cartesian orbitals:

                        Set   Shell   Orbital            Exponent    Coefficient

                          1       1    2s                1.256768       0.294045
                                                         0.506394      -0.015884
                                                         0.238884      -0.207657
                                                         0.087337      -0.036225

                          1       2    3s                1.256768      -1.532347
                                                         0.506394       0.524539
                                                         0.238884       0.025013
                                                         0.087337      -0.052203

                          1       3    3px               1.256768       0.152274
                                                         0.506394      -0.154145
                                                         0.238884      -0.115581
                                                         0.087337      -0.028372
                          1       3    3py               1.256768       0.152274
                                                         0.506394      -0.154145
                                                         0.238884      -0.115581
                                                         0.087337      -0.028372
                          1       3    3pz               1.256768       0.152274
                                                         0.506394      -0.154145
                                                         0.238884      -0.115581
                                                         0.087337      -0.028372

                          1       4    4px               1.256768       0.313378
                                                         0.506394      -0.415360
                                                         0.238884      -0.022539
                                                         0.087337       0.078473
                          1       4    4py               1.256768       0.313378
                                                         0.506394      -0.415360
                                                         0.238884      -0.022539
                                                         0.087337       0.078473
                          1       4    4pz               1.256768       0.313378
                                                         0.506394      -0.415360
                                                         0.238884      -0.022539
                                                         0.087337       0.078473

                          1       5    4dx2              1.256768       0.325879
                                                         0.506394       0.163831
                                                         0.238884       0.044076
                                                         0.087337       0.010608
                          1       5    4dxy              1.256768       0.564439
                                                         0.506394       0.283764
                                                         0.238884       0.076342
                                                         0.087337       0.018373
                          1       5    4dxz              1.256768       0.564439
                                                         0.506394       0.283764
                                                         0.238884       0.076342
                                                         0.087337       0.018373
                          1       5    4dy2              1.256768       0.325879
                                                         0.506394       0.163831
                                                         0.238884       0.044076
                                                         0.087337       0.010608
                          1       5    4dyz              1.256768       0.564439
                                                         0.506394       0.283764
                                                         0.238884       0.076342
                                                         0.087337       0.018373
                          1       5    4dz2              1.256768       0.325879
                                                         0.506394       0.163831
                                                         0.238884       0.044076
                                                         0.087337       0.010608

     Auxiliary Fit Basis Set                                               cFIT3

       Number of orbital shell sets:                                           4
       Number of orbital shells:                                               4
       Number of primitive Cartesian functions:                                6
       Number of Cartesian basis functions:                                    8
       Number of spherical basis functions:                                    8
       Norm type:                                                              2

       Normalised Cartesian orbitals:

                        Set   Shell   Orbital            Exponent    Coefficient

                          1       1    1s                0.096480       0.123378

                          2       1    1s                0.246960      -0.309315
                                                         1.277560       0.429908

                          3       1    1px               0.089490       0.069768
                          3       1    1py               0.089490       0.069768
                          3       1    1pz               0.089490       0.069768

                          4       1    1px               0.295630       0.313983
                                                         2.202470      -0.124968
                          4       1    1py               0.295630       0.313983
                                                         2.202470      -0.124968
                          4       1    1pz               0.295630       0.313983
                                                         2.202470      -0.124968

       Atomic covalent radius [Angstrom]:                                  1.110

       Atomic van der Waals radius [Angstrom]:                             2.100

     GTH Potential information for                                       GTH-PBE

       Description:                       Goedecker-Teter-Hutter pseudopotential
                                           Goedecker et al., PRB 54, 1703 (1996)
                                          Hartwigsen et al., PRB 58, 3641 (1998)
                                                      Krack, TCA 114, 145 (2005)

       Gaussian exponent of the core charge distribution:               2.582645
       Electronic configuration (s p d ...):                               2   2

       Parameters of the local part of the GTH pseudopotential:

                          rloc        C1          C2          C3          C4
                        0.440000   -6.269288

       Parameters of the non-local part of the GTH pseudopotential:

                   l      r(l)      h(i,j,l)

                   0    0.435634    8.951742   -2.706271
                                   -2.706271    3.493781
                   1    0.497942    2.431277

  2. Atomic kind: H                                     Number of atoms:      64

     Orbital Basis Set                                     DZVP-MOLOPT-SR-GTH-q1

       Number of orbital shell sets:                                           1
       Number of orbital shells:                                               3
       Number of primitive Cartesian functions:                                5
       Number of Cartesian basis functions:                                    5
       Number of spherical basis functions:                                    5
       Norm type:                                                              2

       Normalised Cartesian orbitals:

                        Set   Shell   Orbital            Exponent    Coefficient

                          1       1    2s               10.068468      -0.133023
                                                         2.680223      -0.177618
                                                         0.791502      -0.258419
                                                         0.239116      -0.107525
                                                         0.082193      -0.014019

                          1       2    3s               10.068468       0.344673
                                                         2.680223       1.819821
                                                         0.791502      -0.999069
                                                         0.239116       0.017430
                                                         0.082193       0.082660

                          1       3    3px              10.068468       0.155326
                                                         2.680223       0.367157
                                                         0.791502       0.311480
                                                         0.239116       0.080105
                                                         0.082193       0.033440
                          1       3    3py              10.068468       0.155326
                                                         2.680223       0.367157
                                                         0.791502       0.311480
                                                         0.239116       0.080105
                                                         0.082193       0.033440
                          1       3    3pz              10.068468       0.155326
                                                         2.680223       0.367157
                                                         0.791502       0.311480
                                                         0.239116       0.080105
                                                         0.082193       0.033440

     Auxiliary Fit Basis Set                                               cFIT3

       Number of orbital shell sets:                                           2
       Number of orbital shells:                                               2
       Number of primitive Cartesian functions:                                3
       Number of Cartesian basis functions:                                    2
       Number of spherical basis functions:                                    2
       Norm type:                                                              2

       Normalised Cartesian orbitals:

                        Set   Shell   Orbital            Exponent    Coefficient

                          1       1    1s                0.113290       0.139173

                          2       1    1s                0.551250       0.404894
                                                         3.585030       0.334062

       Atomic covalent radius [Angstrom]:                                  0.320

       Atomic van der Waals radius [Angstrom]:                             1.090

     GTH Potential information for                                       GTH-PBE

       Description:                       Goedecker-Teter-Hutter pseudopotential
                                           Goedecker et al., PRB 54, 1703 (1996)
                                          Hartwigsen et al., PRB 58, 3641 (1998)
                                                      Krack, TCA 114, 145 (2005)

       Gaussian exponent of the core charge distribution:              12.500000
       Electronic configuration (s p d ...):                                   1

       Parameters of the local part of the GTH pseudopotential:

                          rloc        C1          C2          C3          C4
                        0.200000   -4.178900    0.724463

  3. Atomic kind: Ge                                    Number of atoms:      32

     Orbital Basis Set                                     DZVP-MOLOPT-SR-GTH-q4

       Number of orbital shell sets:                                           1
       Number of orbital shells:                                               5
       Number of primitive Cartesian functions:                                4
       Number of Cartesian basis functions:                                   14
       Number of spherical basis functions:                                   13
       Norm type:                                                              2

       Normalised Cartesian orbitals:

                        Set   Shell   Orbital            Exponent    Coefficient

                          1       1    2s                3.751626      -0.120003
                                                         1.419172       0.428185
                                                         0.322428      -0.228255
                                                         0.110740      -0.068975

                          1       2    3s                3.751626       0.273885
                                                         1.419172      -0.836040
                                                         0.322428       0.584240
                                                         0.110740      -0.261045

                          1       3    3px               3.751626       0.064521
                                                         1.419172       0.216179
                                                         0.322428      -0.253385
                                                         0.110740      -0.035002
                          1       3    3py               3.751626       0.064521
                                                         1.419172       0.216179
                                                         0.322428      -0.253385
                                                         0.110740      -0.035002
                          1       3    3pz               3.751626       0.064521
                                                         1.419172       0.216179
                                                         0.322428      -0.253385
                                                         0.110740      -0.035002

                          1       4    4px               3.751626      -0.201632
                                                         1.419172      -0.391570
                                                         0.322428       0.486065
                                                         0.110740      -0.127990
                          1       4    4py               3.751626      -0.201632
                                                         1.419172      -0.391570
                                                         0.322428       0.486065
                                                         0.110740      -0.127990
                          1       4    4pz               3.751626      -0.201632
                                                         1.419172      -0.391570
                                                         0.322428       0.486065
                                                         0.110740      -0.127990

                          1       5    4dx2              3.751626      -0.158822
                                                         1.419172       0.193543
                                                         0.322428       0.178643
                                                         0.110740       0.009408
                          1       5    4dxy              3.751626      -0.275088
                                                         1.419172       0.335227
                                                         0.322428       0.309418
                                                         0.110740       0.016296
                          1       5    4dxz              3.751626      -0.275088
                                                         1.419172       0.335227
                                                         0.322428       0.309418
                                                         0.110740       0.016296
                          1       5    4dy2              3.751626      -0.158822
                                                         1.419172       0.193543
                                                         0.322428       0.178643
                                                         0.110740       0.009408
                          1       5    4dyz              3.751626      -0.275088
                                                         1.419172       0.335227
                                                         0.322428       0.309418
                                                         0.110740       0.016296
                          1       5    4dz2              3.751626      -0.158822
                                                         1.419172       0.193543
                                                         0.322428       0.178643
                                                         0.110740       0.009408

     Auxiliary Fit Basis Set                                               cFIT6

       Number of orbital shell sets:                                           4
       Number of orbital shells:                                               4
       Number of primitive Cartesian functions:                                6
       Number of Cartesian basis functions:                                    8
       Number of spherical basis functions:                                    8
       Norm type:                                                              2

       Normalised Cartesian orbitals:

                        Set   Shell   Orbital            Exponent    Coefficient

                          1       1    1s                0.110750       0.136826

                          2       1    1s                0.308366      -0.415436
                                                         1.178430       0.610195

                          3       1    1px               0.110745       0.091064
                          3       1    1py               0.110745       0.091064
                          3       1    1pz               0.110745       0.091064

                          4       1    1px               0.339941       0.397306
                                                         1.591237      -0.423312
                          4       1    1py               0.339941       0.397306
                                                         1.591237      -0.423312
                          4       1    1pz               0.339941       0.397306
                                                         1.591237      -0.423312

       Atomic covalent radius [Angstrom]:                                  1.220

       Atomic van der Waals radius [Angstrom]:                             2.110

     GTH Potential information for                                       GTH-PBE

       Description:                       Goedecker-Teter-Hutter pseudopotential
                                           Goedecker et al., PRB 54, 1703 (1996)
                                          Hartwigsen et al., PRB 58, 3641 (1998)
                                                      Krack, TCA 114, 145 (2005)

       Gaussian exponent of the core charge distribution:               1.714678
       Electronic configuration (s p d ...):                               2   2

       Parameters of the local part of the GTH pseudopotential:

                          rloc        C1          C2          C3          C4
                        0.540000

       Parameters of the non-local part of the GTH pseudopotential:

                   l      r(l)      h(i,j,l)

                   0    0.421865    7.510241   -0.588108   -1.447976
                                   -0.588108   -1.595888    3.738657
                                   -1.447976    3.738657   -2.967467
                   1    0.567529    0.913860    0.546875
                                    0.546875   -0.647072
                   2    0.813914    0.197177


 MOLECULE KIND INFORMATION


 All atoms are their own molecule, skipping detailed information


 TOTAL NUMBERS AND MAXIMUM NUMBERS

  Total number of            - Atomic kinds:                                   3
                             - Atoms:                                        128
                             - Shell sets:                                   128
                             - Shells:                                       512
                             - Primitive Cartesian functions:                576
                             - Cartesian basis functions:                   1216
                             - Spherical basis functions:                   1152

  Maximum angular momentum of- Orbital basis functions:                        2
                             - Local part of the GTH pseudopotential:          2
                             - Non-local part of the GTH pseudopotential:      4

  AUX_FIT ADMM-Basis: 
  Total number of            - Shell sets:                                   384
                             - Shells:                                       384
                             - Primitive Cartesian functions:                576
                             - Cartesian basis functions:                    640
                             - Spherical basis functions:                    640
                               Maximum angular momentum                        1


 MODULE QUICKSTEP:  ATOMIC COORDINATES IN angstrom

 Atom  Kind  Element       X           Y           Z          Z(eff)       Mass
    1   1 Si  14       0.279698    2.340664    1.824621       4.0000     28.0855
    2   1 Si  14       2.210269    1.105062    2.353128       4.0000     28.0855
    3   1 Si  14       4.078976    2.289618    1.555756       4.0000     28.0855
    4   1 Si  14       6.012293    1.162683    2.351089       4.0000     28.0855
    5   1 Si  14      -1.865096    5.679789    1.855250       4.0000     28.0855
    6   1 Si  14       0.078733    4.518569    2.661553       4.0000     28.0855
    7   1 Si  14       1.986676    5.819730    1.848967       4.0000     28.0855
    8   1 Si  14       4.074027    4.612696    2.339549       4.0000     28.0855
    9   2 H    1       0.375166    2.691020    0.306267       1.0000      1.0079
   10   2 H    1       2.403945    0.971924    3.836981       1.0000      1.0079
   11   2 H    1       1.773069    3.387021    5.372122       1.0000      1.0079
   12   2 H    1       3.740161    2.368251    8.894491       1.0000      1.0079
   13   2 H    1       4.107990    2.284143    0.021828       1.0000      1.0079
   14   2 H    1       5.618848    0.747021    3.726257       1.0000      1.0079
   15   2 H    1      -1.607502    3.440164    5.031294       1.0000      1.0079
   16   2 H    1      -0.327393    2.843535    9.297732       1.0000      1.0079
   17   2 H    1      -1.757450    5.403679    0.310673       1.0000      1.0079
   18   2 H    1       0.218978    4.543935    4.149911       1.0000      1.0079
   19   2 H    1       4.042582    0.022631    5.072913       1.0000      1.0079
   20   2 H    1       1.733894    6.092193    9.100854       1.0000      1.0079
   21   2 H    1       1.880055    5.845021    0.355831       1.0000      1.0079
   22   2 H    1       4.254908    4.562363    3.775291       1.0000      1.0079
   23   2 H    1       0.093664    0.255525    5.659699       1.0000      1.0079
   24   2 H    1      -2.232369    6.044974    8.732238       1.0000      1.0079
   25   3 Ge  32       1.851226    3.657000    6.846618       4.0000     72.6400
   26   3 Ge  32       3.873433    2.391006    7.371399       4.0000     72.6400
   27   3 Ge  32      -1.950190    3.427085    6.560734       4.0000     72.6400
   28   3 Ge  32      -0.132200    2.605891    7.810728       4.0000     72.6400
   29   3 Ge  32       3.969942    0.086167    6.657985       4.0000     72.6400
   30   3 Ge  32       1.784504    5.952162    7.559702       4.0000     72.6400
   31   3 Ge  32       0.042081    0.244670    7.169823       4.0000     72.6400
   32   3 Ge  32      -2.200087    5.774501    7.234622       4.0000     72.6400
   33   1 Si  14       8.081846    2.305821    1.772444       4.0000     28.0855
   34   1 Si  14      10.083619    1.167635    2.298910       4.0000     28.0855
   35   1 Si  14      12.179567    2.302920    1.813568       4.0000     28.0855
   36   1 Si  14      14.219128    1.191652    2.446684       4.0000     28.0855
   37   1 Si  14       6.132710    5.743908    1.630721       4.0000     28.0855
   38   1 Si  14       8.142635    4.642837    2.445711       4.0000     28.0855
   39   1 Si  14      10.053005    5.744753    1.632521       4.0000     28.0855
   40   1 Si  14      11.971023    4.566024    2.332869       4.0000     28.0855
   41   2 H    1       7.878813    2.591697    0.286523       1.0000      1.0079
   42   2 H    1       9.924286    1.020023    3.788609       1.0000      1.0079
   43   2 H    1       9.395703    3.103642    5.209092       1.0000      1.0079
   44   2 H    1      12.119650    2.080673    8.709407       1.0000      1.0079
   45   2 H    1      12.155936    2.208155    0.277750       1.0000      1.0079
   46   2 H    1      14.177247    0.884337    3.941002       1.0000      1.0079
   47   2 H    1       6.219034    3.352064    5.140970       1.0000      1.0079
   48   2 H    1       7.966790    2.443089    9.177974       1.0000      1.0079
   49   2 H    1       6.192746    5.921375    0.138522       1.0000      1.0079
   50   2 H    1       8.006360    4.708901    3.881032       1.0000      1.0079
   51   2 H    1      12.511412   -0.754192    5.349745       1.0000      1.0079
   52   2 H    1      10.167864    5.875220    8.803286       1.0000      1.0079
   53   2 H    1       9.858528    5.461900    0.217102       1.0000      1.0079
   54   2 H    1      11.933402    4.513689    3.807558       1.0000      1.0079
   55   2 H    1       7.988673    0.042686    5.083261       1.0000      1.0079
   56   2 H    1       5.858442    6.072107    8.986472       1.0000      1.0079
   57   3 Ge  32       9.963021    3.248415    6.622975       4.0000     72.6400
   58   3 Ge  32      12.107201    2.112268    7.214567       4.0000     72.6400
   59   3 Ge  32       6.078790    3.267394    6.737039       4.0000     72.6400
   60   3 Ge  32       8.065453    2.237171    7.635018       4.0000     72.6400
   61   3 Ge  32      12.229507   -0.349170    6.815414       4.0000     72.6400
   62   3 Ge  32       9.765782    5.627496    7.284269       4.0000     72.6400
   63   3 Ge  32       7.944954   -0.003937    6.690390       4.0000     72.6400
   64   3 Ge  32       5.867511    5.673525    7.501328       4.0000     72.6400
   65   1 Si  14      -3.829961    9.159770    1.503816       4.0000     28.0855
   66   1 Si  14      -1.794013    8.081445    2.329623       4.0000     28.0855
   67   1 Si  14       0.120808    9.221029    1.507245       4.0000     28.0855
   68   1 Si  14       2.218360    8.235529    2.175366       4.0000     28.0855
   69   1 Si  14      -5.859257   12.647402    1.417646       4.0000     28.0855
   70   1 Si  14      -3.921477   11.459945    2.119078       4.0000     28.0855
   71   1 Si  14      -1.790354   12.702418    1.522346       4.0000     28.0855
   72   1 Si  14       0.153314   11.534091    2.291172       4.0000     28.0855
   73   2 H    1      -3.999643    8.857098    0.061227       1.0000      1.0079
   74   2 H    1      -1.883952    8.391924    3.773547       1.0000      1.0079
   75   2 H    1      -1.683882   10.421742    5.041974       1.0000      1.0079
   76   2 H    1      -0.425953    8.831778    9.017297       1.0000      1.0079
   77   2 H    1      -0.056615    9.454855    0.029466       1.0000      1.0079
   78   2 H    1       2.182888    8.421627    3.682139       1.0000      1.0079
   79   2 H    1      -6.740086   10.335280    5.530455       1.0000      1.0079
   80   2 H    1      -3.884090    8.853855    8.639842       1.0000      1.0079
   81   2 H    1      -5.900010   12.845368    0.019344       1.0000      1.0079
   82   2 H    1      -3.963227   11.132162    3.557429       1.0000      1.0079
   83   2 H    1       0.144771    7.449510    5.068556       1.0000      1.0079
   84   2 H    1      -2.227979   12.607532    8.923998       1.0000      1.0079
   85   2 H    1      -1.905765   12.622775    0.076068       1.0000      1.0079
   86   2 H    1       0.323871   11.696566    3.708552       1.0000      1.0079
   87   2 H    1      -4.144037    6.713972    4.758192       1.0000      1.0079
   88   2 H    1      -5.566168   12.584259    9.221397       1.0000      1.0079
   89   3 Ge  32      -2.063193   10.301198    6.549279       4.0000     72.6400
   90   3 Ge  32      -0.257922    9.086064    7.566298       4.0000     72.6400
   91   3 Ge  32      -6.220569   10.223132    6.922938       4.0000     72.6400
   92   3 Ge  32      -4.088189    9.057588    7.154950       4.0000     72.6400
   93   3 Ge  32      -0.260390    6.972767    6.442961       4.0000     72.6400
   94   3 Ge  32      -2.033448   12.674814    7.354048       4.0000     72.6400
   95   3 Ge  32      -4.179903    6.821837    6.290372       4.0000     72.6400
   96   3 Ge  32      -5.920817   12.707788    7.727144       4.0000     72.6400
   97   1 Si  14       4.213270    9.259808    1.280111       4.0000     28.0855
   98   1 Si  14       6.042219    8.061022    2.196042       4.0000     28.0855
   99   1 Si  14       8.044224    9.022451    1.421245       4.0000     28.0855
  100   1 Si  14      10.084166    8.097998    2.275136       4.0000     28.0855
  101   1 Si  14       2.061664   12.625148    1.438063       4.0000     28.0855
  102   1 Si  14       4.218368   11.535461    2.004096       4.0000     28.0855
  103   1 Si  14       6.234374   12.677765    1.402007       4.0000     28.0855
  104   1 Si  14       8.122415   11.359674    1.969823       4.0000     28.0855
  105   2 H    1       4.091014    9.053269   -0.191966       1.0000      1.0079
  106   2 H    1       5.927288    8.239096    3.684705       1.0000      1.0079
  107   2 H    1       6.016565   10.149934    5.918035       1.0000      1.0079
  108   2 H    1       8.183946    9.152333    9.772877       1.0000      1.0079
  109   2 H    1       8.135127    8.777951   -0.019334       1.0000      1.0079
  110   2 H    1       9.922528    8.065790    3.783919       1.0000      1.0079
  111   2 H    1       1.908833   10.037142    5.440851       1.0000      1.0079
  112   2 H    1       3.481542    8.891604    9.245914       1.0000      1.0079
  113   2 H    1       2.073479   12.732638   -0.069911       1.0000      1.0079
  114   2 H    1       4.214090   11.298820    3.501344       1.0000      1.0079
  115   2 H    1       8.033665    7.672014    5.436650       1.0000      1.0079
  116   2 H    1       6.117771   12.829194    9.505458       1.0000      1.0079
  117   2 H    1       6.352813   12.842900   -0.092863       1.0000      1.0079
  118   2 H    1       8.191244   11.231627    3.467768       1.0000      1.0079
  119   2 H    1       3.802524    6.829542    5.258526       1.0000      1.0079
  120   2 H    1       2.134727   12.545390    9.028840       1.0000      1.0079
  121   3 Ge  32       6.019750   10.350038    7.393441       4.0000     72.6400
  122   3 Ge  32       7.923824    9.003950    8.245312       4.0000     72.6400
  123   3 Ge  32       1.791949   10.195524    6.923449       4.0000     72.6400
  124   3 Ge  32       3.862361    9.070266    7.708851       4.0000     72.6400
  125   3 Ge  32       7.799542    6.904259    6.827481       4.0000     72.6400
  126   3 Ge  32       6.222606   12.624707    8.024337       4.0000     72.6400
  127   3 Ge  32       3.894405    6.897373    6.847172       4.0000     72.6400
  128   3 Ge  32       2.055449   12.618004    7.479885       4.0000     72.6400




 SCF PARAMETERS         Density guess:                                   RESTART
                        --------------------------------------------------------
                        max_scf:                                              50
                        max_scf_history:                                       0
                        max_diis:                                              4
                        --------------------------------------------------------
                        eps_scf:                                        1.00E-06
                        eps_scf_history:                                0.00E+00
                        eps_diis:                                       1.00E-01
                        eps_eigval:                                     1.00E-05
                        --------------------------------------------------------
                        level_shift [a.u.]:                                 0.00
                        added MOs                                        50    0
                        --------------------------------------------------------
                        Mixing method:                            BROYDEN_MIXING
                                                charge density mixing in g-space
                        --------------------------------------------------------
                        No outer SCF

 PW_GRID| Information for grid number                                          1
 PW_GRID| Grid distributed over                                    40 processors
 PW_GRID| Real space group dimensions                                    40    1
 PW_GRID| the grid is blocked:                                                NO
 PW_GRID| Cutoff [a.u.]                                                    175.0
 PW_GRID| spherical cutoff:                                                   NO
 PW_GRID|   Bounds   1            -90      89                Points:         180
 PW_GRID|   Bounds   2            -90      89                Points:         180
 PW_GRID|   Bounds   3           -180     179                Points:         360
 PW_GRID| Volume element (a.u.^3)  0.3784E-02     Volume (a.u.^3)     44134.1676
 PW_GRID| Grid span                                                    FULLSPACE
 PW_GRID|   Distribution                         Average         Max         Min
 PW_GRID|   G-Vectors                           291600.0      291600      291600
 PW_GRID|   G-Rays                                1620.0        1620        1620
 PW_GRID|   Real Space Points                   291600.0      324000      259200

 PW_GRID| Information for grid number                                          2
 PW_GRID| Number of the reference grid                                         1
 PW_GRID| Grid distributed over                                    40 processors
 PW_GRID| Real space group dimensions                                    40    1
 PW_GRID| the grid is blocked:                                                NO
 PW_GRID| Cutoff [a.u.]                                                     58.3
 PW_GRID| spherical cutoff:                                                   NO
 PW_GRID|   Bounds   1            -54      53                Points:         108
 PW_GRID|   Bounds   2            -54      53                Points:         108
 PW_GRID|   Bounds   3           -100      99                Points:         200
 PW_GRID| Volume element (a.u.^3)  0.1892E-01     Volume (a.u.^3)     44134.1676
 PW_GRID| Grid span                                                    FULLSPACE
 PW_GRID|   Distribution                         Average         Max         Min
 PW_GRID|   G-Vectors                            58320.0       59724       57024
 PW_GRID|   G-Rays                                 540.0         553         528
 PW_GRID|   Real Space Points                    58320.0       64800       43200

 PW_GRID| Information for grid number                                          3
 PW_GRID| Number of the reference grid                                         1
 PW_GRID| Grid distributed over                                    40 processors
 PW_GRID| Real space group dimensions                                    40    1
 PW_GRID| the grid is blocked:                                                NO
 PW_GRID| Cutoff [a.u.]                                                     19.4
 PW_GRID| spherical cutoff:                                                   NO
 PW_GRID|   Bounds   1            -30      29                Points:          60
 PW_GRID|   Bounds   2            -30      29                Points:          60
 PW_GRID|   Bounds   3            -60      59                Points:         120
 PW_GRID| Volume element (a.u.^3)  0.1022         Volume (a.u.^3)     44134.1676
 PW_GRID| Grid span                                                    FULLSPACE
 PW_GRID|   Distribution                         Average         Max         Min
 PW_GRID|   G-Vectors                            10800.0       11040       10380
 PW_GRID|   G-Rays                                 180.0         184         173
 PW_GRID|   Real Space Points                    10800.0       14400        7200

 PW_GRID| Information for grid number                                          4
 PW_GRID| Number of the reference grid                                         1
 PW_GRID| Grid distributed over                                    40 processors
 PW_GRID| Real space group dimensions                                     5    8
 PW_GRID| the grid is blocked:                                                NO
 PW_GRID| Cutoff [a.u.]                                                      6.5
 PW_GRID| spherical cutoff:                                                   NO
 PW_GRID|   Bounds   1            -18      17                Points:          36
 PW_GRID|   Bounds   2            -18      17                Points:          36
 PW_GRID|   Bounds   3            -36      35                Points:          72
 PW_GRID| Volume element (a.u.^3)  0.4730         Volume (a.u.^3)     44134.1676
 PW_GRID| Grid span                                                    FULLSPACE
 PW_GRID|   Distribution                         Average         Max         Min
 PW_GRID|   G-Vectors                             2332.8        2520        2160
 PW_GRID|   G-Rays                                  64.8          70          60
 PW_GRID|   Real Space Points                     2332.8        2880        2016

 POISSON| Solver                                                        PERIODIC
 POISSON| Periodicity                                                        XYZ

 RS_GRID| Information for grid number                                          1
 RS_GRID|   Bounds   1            -90      89                Points:         180
 RS_GRID|   Bounds   2            -90      89                Points:         180
 RS_GRID|   Bounds   3           -180     179                Points:         360
 RS_GRID| Real space distribution over                                  4 groups
 RS_GRID| Real space distribution along direction                              2
 RS_GRID| Border size                                                         38
 RS_GRID| Real space distribution over                                 10 groups
 RS_GRID| Real space distribution along direction                              3
 RS_GRID| Border size                                                         38
 RS_GRID|   Distribution                         Average         Max         Min
 RS_GRID|   Planes                                 121.0         121         121
 RS_GRID|   Distribution                         Average         Max         Min
 RS_GRID|   Planes                                 112.0         112         112

 RS_GRID| Information for grid number                                          2
 RS_GRID|   Bounds   1            -54      53                Points:         108
 RS_GRID|   Bounds   2            -54      53                Points:         108
 RS_GRID|   Bounds   3           -100      99                Points:         200
 RS_GRID| Real space distribution over                                  4 groups
 RS_GRID| Real space distribution along direction                              2
 RS_GRID| Border size                                                         38
 RS_GRID| Real space distribution over                                 10 groups
 RS_GRID| Real space distribution along direction                              3
 RS_GRID| Border size                                                         38
 RS_GRID|   Distribution                         Average         Max         Min
 RS_GRID|   Planes                                 103.0         103         103
 RS_GRID|   Distribution                         Average         Max         Min
 RS_GRID|   Planes                                  96.0          96          96

 RS_GRID| Information for grid number                                          3
 RS_GRID|   Bounds   1            -30      29                Points:          60
 RS_GRID|   Bounds   2            -30      29                Points:          60
 RS_GRID|   Bounds   3            -60      59                Points:         120
 RS_GRID| Real space fully replicated
 RS_GRID| Group size                                                           1

 RS_GRID| Information for grid number                                          4
 RS_GRID|   Bounds   1            -18      17                Points:          36
 RS_GRID|   Bounds   2            -18      17                Points:          36
 RS_GRID|   Bounds   3            -36      35                Points:          72
 RS_GRID| Real space fully replicated
 RS_GRID| Group size                                                           1

  HFX_INFO| Replica ID:                                                        1
  HFX_INFO| FRACTION:                                               0.2000000000
  HFX_INFO| Interaction Potential:                                     TRUNCATED
  HFX_INFO| Cutoff Radius [angstrom]:                               6.0000000000
  HFX_INFO| EPS_SCHWARZ:                                                 1.0E-08
  HFX_INFO| EPS_SCHWARZ_FORCES                                           1.0E-06
  HFX_INFO| EPS_STORAGE_SCALING:                                         1.0E-01
  HFX_INFO| NBINS:                                                            64
  HFX_INFO| BLOCK_SIZE:                                                        2
  HFX_INFO| NUMBER_OF_SHELLS:                                               AUTO
  HFX_INFO| Number of periodic shells considered:                             -1
  HFX_INFO| Number of periodic cells considered:                              27


 Number of electrons:                                                        320
 Number of occupied orbitals:                                                160
 Number of molecular orbitals:                                               210

 Number of orbital functions:                                               1152
 Number of independent orbital functions:                                   1152

 Extrapolation method: initial_guess

 *** WARNING in qs_initial_guess.F:309 :: User requested to restart the    ***
 *** wavefunction from the file named: Diag_libra-2012-RESTART.wfn. This   ***
 *** file does not exist. Please check the existence of the file or change ***
 *** properly the value of the keyword WFN_RESTART_FILE_NAME. Calculation  ***
 *** continues using ATOMIC GUESS.                                         ***


 Atomic guess: The first density matrix is obtained in terms of atomic orbitals
               and electronic configurations assigned to each atomic kind

 Guess for atomic kind: Si

 Electronic structure
    Total number of core electrons                                         10.00
    Total number of valence electrons                                       4.00
    Total number of electrons                                              14.00
    Multiplicity                                                   not specified
    S   [  2.00  2.00] 2.00
    P   [  6.00] 2.00


 *******************************************************************************
                  Iteration          Convergence                     Energy [au]
 *******************************************************************************
                          1        0.526541E-01                  -3.659692963728
                          2        0.125823E-01                  -3.661785675622
                          3        0.408986E-04                  -3.661911567360
                          4        0.675570E-07                  -3.661911568709

 Energy components [Hartree]           Total Energy ::           -3.661911568709
                                        Band Energy ::           -0.941881516273
                                     Kinetic Energy ::            1.409736465412
                                   Potential Energy ::           -5.071648034121
                                      Virial (-V/T) ::            3.597585902439
                                        Core Energy ::           -5.690149137281
                                          XC Energy ::           -0.992569238249
                                     Coulomb Energy ::            3.020806806821
                       Total Pseudopotential Energy ::           -7.143143335066
                       Local Pseudopotential Energy ::           -8.006124475851
                    Nonlocal Pseudopotential Energy ::            0.862981140786
                                        Confinement ::            0.432577323720

 Orbital energies  State     L     Occupation   Energy[a.u.]          Energy[eV]

                       1     0          2.000      -0.357276           -9.721984

                       1     1          2.000      -0.113664           -3.092965


 Total Electron Density at R=0:                                         0.000026

 Guess for atomic kind: H

 Electronic structure
    Total number of core electrons                                          0.00
    Total number of valence electrons                                       1.00
    Total number of electrons                                               1.00
    Multiplicity                                                   not specified
    S      1.00


 *******************************************************************************
                  Iteration          Convergence                     Energy [au]
 *******************************************************************************
                          1        0.250972E-02                  -0.375256815885
                          2        0.570752E-04                  -0.375258666164
                          3        0.832405E-09                  -0.375258667122

 Energy components [Hartree]           Total Energy ::           -0.375258667122
                                        Band Energy ::           -0.076317618391
                                     Kinetic Energy ::            0.771356566341
                                   Potential Energy ::           -1.146615233463
                                      Virial (-V/T) ::            1.486491829455
                                        Core Energy ::           -0.456090715790
                                          XC Energy ::           -0.314218627334
                                     Coulomb Energy ::            0.395050676003
                       Total Pseudopotential Energy ::           -1.238482237174
                       Local Pseudopotential Energy ::           -1.238482237174
                    Nonlocal Pseudopotential Energy ::            0.000000000000
                                        Confinement ::            0.110349550431

 Orbital energies  State     L     Occupation   Energy[a.u.]          Energy[eV]

                       1     0          1.000      -0.076318           -2.076708


 Total Electron Density at R=0:                                         0.425022

 Guess for atomic kind: Ge

 Electronic structure
    Total number of core electrons                                         28.00
    Total number of valence electrons                                       4.00
    Total number of electrons                                              32.00
    Multiplicity                                                   not specified
    S   [  2.00  2.00  2.00] 2.00
    P   [  6.00  6.00] 2.00
    D   [ 10.00]


 *******************************************************************************
                  Iteration          Convergence                     Energy [au]
 *******************************************************************************
                          1        0.142224                      -3.669910672039
                          2        0.333188E-01                  -3.687823698339
                          3        0.522642E-04                  -3.688875018994
                          4        0.333285E-05                  -3.688875020047
                          5        0.154106E-05                  -3.688875020053
                          6        0.996835E-06                  -3.688875020055

 Energy components [Hartree]           Total Energy ::           -3.688875020055
                                        Band Energy ::           -0.991816616960
                                     Kinetic Energy ::            1.446010121603
                                   Potential Energy ::           -5.134885141658
                                      Virial (-V/T) ::            3.551071368687
                                        Core Energy ::           -5.696847161393
                                          XC Energy ::           -0.988567154744
                                     Coulomb Energy ::            2.996539296082
                       Total Pseudopotential Energy ::           -7.185566698510
                       Local Pseudopotential Energy ::           -7.622158091196
                    Nonlocal Pseudopotential Energy ::            0.436591392686
                                        Confinement ::            0.427094155139

 Orbital energies  State     L     Occupation   Energy[a.u.]          Energy[eV]

                       1     0          2.000      -0.391724          -10.659354

                       1     1          2.000      -0.104184           -2.834997


 Total Electron Density at R=0:                                         0.000078
 Re-scaling the density matrix to get the right number of electrons
                  # Electrons              Trace(P)               Scaling factor
                          320               320.000                        1.000


 SCF WAVEFUNCTION OPTIMIZATION

  Step     Update method      Time    Convergence         Total energy    Change
  ------------------------------------------------------------------------------

  HFX_MEM_INFO| Est. max. program size before HFX [MiB]:                     519

 *** WARNING in hfx_energy_potential.F:591 :: The Kohn Sham matrix is not  ***
 *** 100% occupied. This may result in incorrect Hartree-Fock results. Try ***
 *** to decrease EPS_PGF_ORB and EPS_FILTER_MATRIX in the QS section. For  ***
 *** more information see FAQ: https://www.cp2k.org/faq:hfx_eps_warning    ***

  HFX_MEM_INFO| Number of cart. primitive ERI's calculated:          16112272596
  HFX_MEM_INFO| Number of sph. ERI's calculated:                      4153329622
  HFX_MEM_INFO| Number of sph. ERI's stored in-core:                  4153329287
  HFX_MEM_INFO| Number of sph. ERI's stored on disk:                           0
  HFX_MEM_INFO| Number of sph. ERI's calculated on the fly:                    0
  HFX_MEM_INFO| Total memory consumption ERI's RAM [MiB]:                   6525
  HFX_MEM_INFO| Whereof max-vals [MiB]:                                      278
  HFX_MEM_INFO| Total compression factor ERI's RAM:                         4.86
  HFX_MEM_INFO| Total memory consumption ERI's disk [MiB]:                     0
  HFX_MEM_INFO| Total compression factor ERI's disk:                        0.00
  HFX_MEM_INFO| Size of density/Fock matrix [MiB]:                             2
  HFX_MEM_INFO| Size of buffers [MiB]:                                         1
  HFX_MEM_INFO| Number of periodic image cells considered:                    27
  HFX_MEM_INFO| Est. max. program size after HFX  [MiB]:                     683

     1 NoMix/Diag. 0.30E+00   46.8     1.45254452      -266.1249382966 -2.66E+02
     2 Broy./Diag. 0.30E+00    6.5     0.70468720      -277.1169007849 -1.10E+01
     3 Broy./Diag. 0.30E+00    6.3     0.35900428      -281.8465833526 -4.73E+00
     4 Broy./Diag. 0.30E+00    6.2     0.08983572      -284.5447750807 -2.70E+00
     5 Broy./Diag. 0.30E+00    6.5     0.03260091      -286.4486684877 -1.90E+00
     6 Broy./Diag. 0.30E+00    6.2     0.03104827      -287.4940467122 -1.05E+00
     7 Broy./Diag. 0.30E+00    6.5     0.00654745      -287.8300372908 -3.36E-01
     8 Broy./Diag. 0.30E+00    6.2     0.01155185      -287.7491385439  8.09E-02
     9 Broy./Diag. 0.30E+00    6.6     0.00858287      -287.8078010165 -5.87E-02
    10 Broy./Diag. 0.30E+00    6.3     0.00616159      -287.8489589652 -4.12E-02
    11 Broy./Diag. 0.30E+00    6.3     0.00486579      -287.8421180018  6.84E-03
    12 Broy./Diag. 0.30E+00    6.6     0.00452680      -287.9230895090 -8.10E-02
    13 Broy./Diag. 0.30E+00    6.3     0.00182991      -287.9654245458 -4.23E-02
    14 Broy./Diag. 0.30E+00    6.6     0.00243258      -287.9644146623  1.01E-03
    15 Broy./Diag. 0.30E+00    6.3     0.00080255      -287.9678745660 -3.46E-03
    16 Broy./Diag. 0.30E+00    6.6     0.00186880      -287.9607827926  7.09E-03
    17 Broy./Diag. 0.30E+00    6.3     0.00045333      -287.9602449247  5.38E-04
    18 Broy./Diag. 0.30E+00    6.3     0.00086953      -287.9558230771  4.42E-03
    19 Broy./Diag. 0.30E+00    6.5     0.00030598      -287.9562823677 -4.59E-04
    20 Broy./Diag. 0.30E+00    6.4     0.00046188      -287.9623438803 -6.06E-03
    21 Broy./Diag. 0.30E+00    6.5     0.00019491      -287.9645640987 -2.22E-03
    22 Broy./Diag. 0.30E+00    6.4     0.00003806      -287.9650895310 -5.25E-04
    23 Broy./Diag. 0.30E+00    6.6     0.00011971      -287.9653002169 -2.11E-04
    24 Broy./Diag. 0.30E+00    6.3     0.00018645      -287.9653651670 -6.50E-05
    25 Broy./Diag. 0.30E+00    6.4     0.00006006      -287.9658652163 -5.00E-04
    26 Broy./Diag. 0.30E+00    6.6     0.00008046      -287.9660287656 -1.64E-04
    27 Broy./Diag. 0.30E+00    6.3     0.00002663      -287.9659350645  9.37E-05
    28 Broy./Diag. 0.30E+00    6.6     0.00002408      -287.9659654714 -3.04E-05
    29 Broy./Diag. 0.30E+00    6.4     0.00004625      -287.9666542645 -6.89E-04
    30 Broy./Diag. 0.30E+00    6.6     0.00003707      -287.9669928853 -3.39E-04
    31 Broy./Diag. 0.30E+00    6.3     0.00001288      -287.9668528369  1.40E-04
    32 Broy./Diag. 0.30E+00    6.3     0.00000672      -287.9667493182  1.04E-04
    33 Broy./Diag. 0.30E+00    6.5     0.00001051      -287.9667455826  3.74E-06
    34 Broy./Diag. 0.30E+00    6.3     0.00000521      -287.9667601886 -1.46E-05
    35 Broy./Diag. 0.30E+00    6.5     0.00000214      -287.9667975989 -3.74E-05
    36 Broy./Diag. 0.30E+00    6.3     0.00000213      -287.9668448370 -4.72E-05
    37 Broy./Diag. 0.30E+00    6.6     0.00000139      -287.9668607497 -1.59E-05
    38 Broy./Diag. 0.30E+00    6.4     0.00000082      -287.9668565743  4.18E-06

  *** SCF run converged in    38 steps ***


  Electronic density on regular grids:       -319.9999999982        0.0000000018
  Core density on regular grids:              319.9999999278       -0.0000000722
  Total charge density on r-space grids:       -0.0000000704
  Total charge density g-space grids:          -0.0000000704

  Overlap energy of the core charge distribution:               0.00002303403431
  Self energy of the core charge distribution:               -685.99374549079380
  Core Hamiltonian energy:                                    163.82417706226803
  Hartree energy:                                             331.66316701364099
  Exchange-correlation energy:                                -79.83872515808970
  Hartree-Fock Exchange energy:                               -17.17383953700994
  Dispersion energy:                                           -0.44791349836007

  Total energy:                                              -287.96685657431021

   Calculate PDOS at iteration step                                  0

              ---- PDOS: start iteration on the KS states --- 

 *******************************************************************************
 **                                                                           **
 **         ######## #######   #######   ######## #######  ########           **
 **            ##    ##     ## ##     ## ##       ##   ##     ##              **
 **            ##    ##     ## ##     ## ######   #######     ##              **
 **            ##    ##     ## ##     ## ##       ##          ##              **
 **            ##    #######   #######   ##       ##          ##              **
 **                                                                           **
 *******************************************************************************
 
 -------------------------------------------------------------------------------
 -                            TDDFPT Initial Guess                             -
 -------------------------------------------------------------------------------
          State         Occupied      ->      Virtual          Excitation
          number         orbital              orbital          energy (eV)
 -------------------------------------------------------------------------------
             1              160                  161              2.00475
             2              159                  161              2.07295
             3              160                  162              2.14412
             4              159                  162              2.21232
             5              160                  163              2.24521
             6              160                  164              2.28092
             7              159                  163              2.31341
             8              159                  164              2.34912
             9              160                  165              2.36855
            10              159                  165              2.43675
            11              160                  166              2.56616
            12              160                  167              2.58478
            13              159                  166              2.63436
            14              159                  167              2.65298
            15              160                  168              2.65723
            16              160                  169              2.68985
            17              160                  170              2.69701
            18              159                  168              2.72543
            19              159                  169              2.75805
            20              159                  170              2.76521

      Number of active states:                                     158720
 -------------------------------------------------------------------------------
 
 -------------------------------------------------------------------------------
 -                      TDDFPT WAVEFUNCTION OPTIMIZATION                       -
 -------------------------------------------------------------------------------

          Step            Time         Convergence           Conv. states
 -------------------------------------------------------------------------------

    State    Exc. energy (eV)      Convergence (eV)
        1       1.6704405            -3.3431E-01
        2       1.7367222            -3.3623E-01
        3       2.0204194            -1.2370E-01
        4       2.0924042            -1.1992E-01
        5       2.1220313            -1.2318E-01
        6       2.1709288            -1.0999E-01
        7       2.1989502            -1.1446E-01
        8       2.2326917            -1.1643E-01
        9       2.2441942            -1.2436E-01
       10       2.3007459            -1.3600E-01
       11       2.3120668            -2.5409E-01
       12       2.3736749            -2.1110E-01
       13       2.3881603            -2.4620E-01
       14       2.4515626            -2.0141E-01
       15       2.4904820            -1.6675E-01
       16       2.5579329            -1.3192E-01
       17       2.5803182            -1.1669E-01
       18       2.6026183            -1.2281E-01
       19       2.6491397            -1.0891E-01
       20       2.6758027            -8.9406E-02

             1           124.3          1.2356E-02                      0

    State    Exc. energy (eV)      Convergence (eV)
        1       1.6315887            -3.8852E-02
        2       1.6969308            -3.9791E-02
        3       2.0154252            -4.9942E-03
        4       2.0871044            -5.2998E-03
        5       2.0913577            -3.0674E-02
        6       2.1598598            -1.1069E-02
        7       2.1700003            -2.8950E-02
        8       2.2064422            -2.6249E-02
        9       2.2260484            -1.8146E-02
       10       2.2701557            -3.0590E-02
       11       2.2913943            -2.0673E-02
       12       2.3487754            -2.4900E-02
       13       2.3684095            -1.9751E-02
       14       2.4231153            -2.8447E-02
       15       2.4804309            -1.0051E-02
       16       2.5375548            -2.0378E-02
       17       2.5549630            -2.5355E-02
       18       2.5754043            -2.7214E-02
       19       2.5817061            -6.7434E-02
       20       2.6479460            -2.7857E-02

             2           124.3          2.4781E-03                      0

    State    Exc. energy (eV)      Convergence (eV)
        1       1.6252096            -6.3791E-03
        2       1.6894532            -7.4776E-03
        3       2.0150852            -3.4005E-04
        4       2.0862119            -8.9252E-04
        5       2.0882589            -3.0988E-03
        6       2.1584043            -1.4555E-03
        7       2.1653641            -4.6362E-03
        8       2.2019905            -4.4517E-03
        9       2.2231039            -2.9445E-03
       10       2.2660022            -4.1535E-03
       11       2.2877255            -3.6688E-03
       12       2.3454028            -3.3725E-03
       13       2.3644948            -3.9147E-03
       14       2.4155467            -7.5687E-03
       15       2.4486163            -3.1815E-02
       16       2.4703250            -6.7230E-02
       17       2.4887820            -6.6181E-02
       18       2.5515363            -2.3868E-02
       19       2.5704352            -1.1271E-02
       20       2.5973240            -5.0622E-02

             3           124.1          2.4707E-03                      0

[...]
 flops     5 x    18 x    13             19169280       0.0%    100.0%      0.0%
 flops     8 x     2 x    18             42725376       0.0%    100.0%      0.0%
 flops     2 x     8 x    18             42791040       0.0%    100.0%      0.0%
 flops    13 x    18 x    13             49840128       0.0%    100.0%      0.0%
 flops     5 x     5 x    18             72867600       0.0%    100.0%      0.0%
 flops     5 x     1 x     5             79716000       0.0%    100.0%      0.0%
 flops     2 x     2 x    32            106229760       0.0%    100.0%      0.0%
 flops     8 x     8 x    18            182108160       0.0%    100.0%      0.0%
 flops     5 x    13 x    18            186900480       0.0%    100.0%      0.0%
 flops    13 x     5 x    18            186900480       0.0%    100.0%      0.0%
 flops     5 x     1 x    13            207667200       0.0%    100.0%      0.0%
 flops    13 x     1 x     5            207667200       0.0%    100.0%      0.0%
 flops   283 x   111 x    32            432242880       0.0%    100.0%      0.0%
 flops   286 x   111 x    32            436824960       0.0%    100.0%      0.0%
 flops   288 x   111 x    32            439879680       0.0%    100.0%      0.0%
 flops   295 x   111 x    32            450571200       0.0%    100.0%      0.0%
 flops     8 x     2 x    32            455737344       0.0%    100.0%      0.0%
 flops     2 x     8 x    32            456437760       0.0%    100.0%      0.0%
 flops    13 x    13 x    18            493534080       0.0%    100.0%      0.0%
 flops    13 x     1 x    13            539934720       0.0%    100.0%      0.0%
 flops     5 x     5 x    32            777254400       0.0%    100.0%      0.0%
 flops   283 x   113 x    32           1320093120       0.0%    100.0%      0.0%
 flops   286 x   113 x    32           1334087040       0.0%    100.0%      0.0%
 flops   288 x   113 x    32           1343416320       0.0%    100.0%      0.0%
 flops   283 x   116 x    32           1355139840       0.0%    100.0%      0.0%
 flops   286 x   116 x    32           1369505280       0.0%    100.0%      0.0%
 flops   295 x   113 x    32           1376068800       0.0%    100.0%      0.0%
 flops   283 x   118 x    32           1378504320       0.0%    100.0%      0.0%
 flops   288 x   116 x    32           1379082240       0.0%    100.0%      0.0%
 flops   286 x   118 x    32           1393117440       0.0%    100.0%      0.0%
 flops   288 x   118 x    32           1402859520       0.0%    100.0%      0.0%
 flops   295 x   116 x    32           1412601600       0.0%    100.0%      0.0%
 flops   295 x   118 x    32           1436956800       0.0%    100.0%      0.0%
 flops     8 x     8 x    32           1942487040       0.0%    100.0%      0.0%
 flops     5 x    13 x    32           1993605120       0.0%    100.0%      0.0%
 flops    13 x     5 x    32           1993605120       0.0%    100.0%      0.0%
 flops    13 x    13 x    32           5264363520       0.0%    100.0%      0.0%
 flops     2 x    32 x     2           7909539840       0.0%    100.0%      0.0%
 flops     5 x    32 x     5          33449651200       0.0%    100.0%      0.0%
 flops     2 x    32 x     8          34566635520       0.0%    100.0%      0.0%
 flops     8 x    32 x     2          34566635520       0.0%    100.0%      0.0%
 flops     5 x    32 x    13          87139287040       0.0%    100.0%      0.0%
 flops    13 x    32 x     5          87139287040       0.0%    100.0%      0.0%
 flops     8 x    32 x     8         144955146240       0.0%    100.0%      0.0%
 flops    13 x    32 x    13         226562146304       0.0%    100.0%      0.0%
 flops inhomo. stacks                           0       0.0%      0.0%      0.0%
 flops total                       689.887308E+09       0.0%    100.0%      0.0%
 flops max/rank                     29.353504E+09       0.0%    100.0%      0.0%
 matmuls inhomo. stacks                         0       0.0%      0.0%      0.0%
 matmuls total                          228303354       0.0%    100.0%      0.0%
 number of processed stacks               2611320       0.0%    100.0%      0.0%
 average stack size                                     0.0      87.4       0.0
 marketing flops                   701.778821E+09
 -------------------------------------------------------------------------------
 # multiplications                           1762
 max memory usage/rank             872.570880E+06
 # max total images/rank                        5
 # max 3D layers                                1
 # MPI messages exchanged                 2325840
 MPI messages size (bytes):
  total size                       151.833657E+09
  min size                           0.000000E+00
  max size                         176.800000E+03
  average size                      65.281215E+03
 MPI breakdown and total messages size (bytes):
             size <=      128              621996                        0
       128 < size <=     8192               23460                 11242368
      8192 < size <=    32768              459648               8769439872
     32768 < size <=   131072              716016              70956613728
    131072 < size <=  4194304              504720              72083100960
   4194304 < size <= 16777216                   0                        0
  16777216 < size                               0                        0
 -------------------------------------------------------------------------------

 *** WARNING in dbcsr_mm.F:294 :: Using a non-square number of MPI ranks ***
 *** might lead to poor performance. Used ranks: 40 Suggested: 36 81     ***

 -------------------------------------------------------------------------------
 -                                                                             -
 -                      DBCSR MESSAGE PASSING PERFORMANCE                      -
 -                                                                             -
 -------------------------------------------------------------------------------
 ROUTINE             CALLS      AVE VOLUME [Bytes]
 MP_Bcast               49                     12.
 MP_Allreduce         5996                      8.
 MP_Alltoall         55211                  32920.
 MP_ISend           133672                  32201.
 MP_IRecv           140480                  30163.
 -------------------------------------------------------------------------------

 -------------------------------------------------------------------------------
 -                                                                             -
 -                                GRID STATISTICS                              -
 -                                                                             -
 -------------------------------------------------------------------------------
 LP    KERNEL             BACKEND                              COUNT     PERCENT
 1     collocate general  REF                               10432089      16.37%
 3     collocate general  REF                               10246040      16.08%
 3     integrate general  REF                               10172854      15.96%
 0     collocate general  REF                                8551727      13.42%
 2     collocate general  REF                                8514282      13.36%
 2     integrate general  REF                                5362620       8.41%
 4     collocate general  REF                                5245240       8.23%
 4     integrate general  REF                                5207774       8.17%
 -------------------------------------------------------------------------------

 MEMORY| Estimated peak process memory [MiB]                                 833

 -------------------------------------------------------------------------------
 ----                             MULTIGRID INFO                            ----
 -------------------------------------------------------------------------------
 count for grid        1:         222343          cutoff [a.u.]          175.00
 count for grid        2:         200182          cutoff [a.u.]           58.33
 count for grid        3:         186223          cutoff [a.u.]           19.44
 count for grid        4:          73862          cutoff [a.u.]            6.48
 total gridlevel count  :         682610

 -------------------------------------------------------------------------------
 -                                                                             -
 -                         MESSAGE PASSING PERFORMANCE                         -
 -                                                                             -
 -------------------------------------------------------------------------------

 ROUTINE             CALLS      AVE VOLUME [Bytes]
 MP_Group                4
 MP_Bcast              708                1572076.
 MP_Allreduce        30876                    233.
 MP_Sync              1541
 MP_Alltoall          8356               10386129.
 MP_ISendRecv        87048                  63240.
 MP_Wait            174129
 MP_comm_split          72
 MP_ISend            78724                 299662.
 MP_IRecv            79544                 297676.
 MP_Recv               378                 149650.
 -------------------------------------------------------------------------------


 -------------------------------------------------------------------------------
 -                                                                             -
 -                           R E F E R E N C E S                               -
 -                                                                             -
 -------------------------------------------------------------------------------
 
 CP2K version 9.1, the CP2K developers group (2021).
 CP2K is freely available from https://www.cp2k.org/ .

 Kuehne,Thomas D.; Iannuzzi,Marcella; Del Ben,Mauro;
 Rybkin,Vladimir V.; Seewald,Patrick; Stein,Frederick; Laino,Teodoro;
 Khaliullin,Rustam Z.; Schuett,Ole; Schiffmann,Florian; Golze,Dorothea;
 Wilhelm,Jan; Chulkov,Sergey; Bani-Hashemian,Mohammad Hossein;
 Weber,Valery; Borstnik,Urban; Taillefumier,Mathieu;
 Jakobovits,Alice Shoshana; Lazzaro,Alfio; Pabst,Hans; Mueller,Tiziano;
 Schade,Robert; Guidon,Manuel; Andermatt,Samuel; Holmberg,Nico;
 Schenter,Gregory K.; Hehn,Anna; Bussy,Augustin; Belleflamme,Fabian;
 Tabacchi,Gloria; Gloess,Andreas; Lass,Michael; Bethune,Iain;
 Mundy,Christopher J.; Plessl,Christian; Watkins,Matt;
 VandeVondele,Joost; Krack,Matthias; Hutter,Juerg. 
 The Journal of Chemical Physics, 152 (19), (2020). 
 CP2K: An electronic structure and molecular dynamics software package -
 Quickstep: Efficient and accurate electronic structure calculations.
 https://doi.org/10.1063/5.0007045

 Goerigk, Lars; Hansen, Andreas; Bauer, Christoph; Ehrlich, Stephan;
 Najibi, Asim; Grimme, Stefan. , 19 (48), (2017). 
 A look at the density functional theory zoo with the advanced GMTKN55 database
 for general main group thermochemistry, kinetics and noncovalent interactions.
 https://doi.org/10.1039/C7CP04913G

 Schuett, Ole; Messmer, Peter; Hutter, Juerg; VandeVondele, Joost. 
 Electronic Structure Calculations on Graphics Processing Units, John
 Wiley & Sons, Ltd, 173-190 (2016). 
 GPU-Accelerated Sparse Matrix-Matrix Multiplication for
 Linear Scaling Density Functional Theory.
 https://doi.org/10.1002/9781118670712.ch8

 Heinecke, A; Henry, G; Hutchinson, M; Pabst, H. 
 Proceedings of Intl. Supercomputing Conference, 981-991 (2016). 
 LIBXSMM: Accelerating Small Matrix Multiplications
 by Runtime Code Generation.
 https://doi.org/10.1109/SC.2016.83

 Borstnik, U; VandeVondele, J; Weber, V; Hutter, J. 
 PARALLEL COMPUTING, 40 (5-6), 47-58 (2014). 
 Sparse matrix multiplication: The distributed block-compressed sparse
 row library.
 https://doi.org/10.1016/j.parco.2014.03.012

 Hutter, J; Iannuzzi, M; Schiffmann, F; VandeVondele, J. 
 WIREs Comput Mol Sci., 4 (1), 15-25 (2014). 
 CP2K: atomistic simulations of condensed matter systems.
 https://doi.org/10.1002/wcms.1159

 Grimme, S; Ehrlich, S; Goerigk, L. 
 JOURNAL OF COMPUTATIONAL CHEMISTRY, 32, 1456 (2011). 
 Effect of the damping function in dispersion corrected density functional theory.
 https://doi.org/10.1002/jcc.21759

 Guidon, M; Hutter, J; VandeVondele, J. 
 JOURNAL OF CHEMICAL THEORY AND COMPUTATION, 6 (8), 2348-2364 (2010). 
 Auxiliary Density Matrix Methods for Hartree-Fock Exchange Calculations.
 https://doi.org/10.1021/ct1002225

 Grimme, S; Antony, J; Ehrlich, S; Krieg, H. 
 JOURNAL OF CHEMICAL PHYSICS, 132 (15), 154104 (2010). 
 A consistent and accurate ab initio parametrization of density
 functional dispersion correction (DFT-D) for the 94 elements H-Pu.
 https://doi.org/10.1063/1.3382344

 Guidon, M; Hutter, J; VandeVondele, J. 
 JOURNAL OF CHEMICAL THEORY AND COMPUTATION, 5 (11), 3010-3021 (2009). 
 Robust Periodic Hartree-Fock Exchange for Large-Scale Simulations Using
 Gaussian Basis Sets.
 https://doi.org/10.1021/ct900494g

 Guidon, M; Schiffmann, F; Hutter, J; VandeVondele, J. 
 JOURNAL OF CHEMICAL PHYSICS, 128 (21), 214104 (2008). 
 Ab initio molecular dynamics using hybrid density functionals.
 https://doi.org/10.1063/1.2931945

 VandeVondele, J; Hutter, J. 
 JOURNAL OF CHEMICAL PHYSICS, 127 (11), 114105 (2007). 
 Gaussian basis sets for accurate calculations on molecular systems in
 gas and condensed phases.
 https://doi.org/10.1063/1.2770708

 Krack, M. 
 THEORETICAL CHEMISTRY ACCOUNTS, 114 (1-3), 145-152 (2005). 
 Pseudopotentials for H to Kr optimized for gradient-corrected
 exchange-correlation functionals.
 https://doi.org/10.1007/s00214-005-0655-y

 VandeVondele, J; Krack, M; Mohamed, F; Parrinello, M; Chassaing, T;
 Hutter, J. COMPUTER PHYSICS COMMUNICATIONS, 167 (2), 103-128 (2005). 
 QUICKSTEP: Fast and accurate density functional calculations using a
 mixed Gaussian and plane waves approach.
 https://doi.org/10.1016/j.cpc.2004.12.014

 Frigo, M; Johnson, SG. 
 PROCEEDINGS OF THE IEEE, 93 (2), 216-231 (2005). 
 The design and implementation of FFTW3.
 https://doi.org/10.1109/JPROC.2004.840301

 Iannuzzi, M; Chassaing, T; Wallman, T; Hutter, J. 
 CHIMIA, 59 (7-8), 499-503 (2005). 
 Ground and excited state density functional calculations with the
 Gaussian and augmented-plane-wave method.
 https://doi.org/10.2533/000942905777676164

 Martin,Richard L.. 
 The Journal of Chemical Physics, 118 (11), 4775-4777 (2003). 
 Natural transition orbitals.
 https://doi.org/10.1063/1.1558471

 Hartwigsen, C; Goedecker, S; Hutter, J. 
 PHYSICAL REVIEW B, 58 (7), 3641-3662 (1998). 
 Relativistic separable dual-space Gaussian pseudopotentials from H to Rn.
 https://doi.org/10.1103/PhysRevB.58.3641

 Lippert, G; Hutter, J; Parrinello, M. 
 MOLECULAR PHYSICS, 92 (3), 477-487 (1997). 
 A hybrid Gaussian and plane wave density functional scheme.
 https://doi.org/10.1080/002689797170220

 Goedecker, S; Teter, M; Hutter, J. 
 PHYSICAL REVIEW B, 54 (3), 1703-1710 (1996). 
 Separable dual-space Gaussian pseudopotentials.
 https://doi.org/10.1103/PhysRevB.54.1703

 BECKE, AD. PHYSICAL REVIEW A, 38 (6), 3098-3100 (1988). 
 DENSITY-FUNCTIONAL EXCHANGE-ENERGY APPROXIMATION WITH CORRECT
 ASYMPTOTIC-BEHAVIOR.
 https://doi.org/10.1103/PhysRevA.38.3098

 LEE, CT; YANG, WT; PARR, RG. 
 PHYSICAL REVIEW B, 37 (2), 785-789 (1988). 
 DEVELOPMENT OF THE COLLE-SALVETTI CORRELATION-ENERGY FORMULA INTO A
 FUNCTIONAL OF THE ELECTRON-DENSITY.
 https://doi.org/10.1103/PhysRevB.37.785

 VOSKO, SH; WILK, L; NUSAIR, M. 
 CANADIAN JOURNAL OF PHYSICS, 58 (8), 1200-1211 (1980). 
 ACCURATE SPIN-DEPENDENT ELECTRON LIQUID CORRELATION ENERGIES FOR LOCAL
 SPIN-DENSITY CALCULATIONS - A CRITICAL ANALYSIS.
 https://doi.org/10.1139/p80-159


 -------------------------------------------------------------------------------
 -                                                                             -
 -                                T I M I N G                                  -
 -                                                                             -
 -------------------------------------------------------------------------------
 SUBROUTINE                       CALLS  ASD         SELF TIME        TOTAL TIME
                                MAXIMUM       AVERAGE  MAXIMUM  AVERAGE  MAXIMUM
 CP2K                                 1  1.0    0.030    0.058 1781.190 1781.204
 qs_energies                          1  2.0    0.000    0.000 1780.645 1780.657
 qs_energies_properties               1  3.0    0.000    0.000 1494.574 1494.584
 tddfpt                               1  4.0    0.000    0.001 1494.574 1494.584
 tddfpt_davidson_solver               2  5.0    0.002    0.005 1489.480 1489.491
 tddfpt_compute_Aop_evects           12  6.0    0.000    0.000 1483.686 1483.695
 integrate_four_center              278  9.0    0.346    0.728 1291.026 1291.036
 integrate_four_center_main         278 10.0    0.088    0.094 1235.124 1263.475
 integrate_four_center_bin        17792 11.0 1235.036 1263.383 1235.036 1263.383
 tddfpt_apply_hfx                    12  7.0    0.004    0.005 1084.987 1084.996
 tddft_hfx_matrix                   240  8.0    0.005    0.006 1079.087 1079.095
 fhxc_kernel                         12  7.0    0.011    0.012  397.141  397.143
 scf_env_do_scf                       1  3.0    0.000    0.000  284.637  284.744
 scf_env_do_scf_inner_loop           38  4.0    0.001    0.006  284.637  284.743
 qs_ks_update_qs_env                 38  5.0    0.000    0.000  257.664  257.666
 rebuild_ks_matrix                   38  6.0    0.000    0.000  257.652  257.654
 qs_ks_build_kohn_sham_matrix        38  7.0    0.005    0.006  257.652  257.654
 hfx_ks_matrix                       38  8.0    0.001    0.001  211.957  211.958
 calculate_rho_elec                 559  8.8    1.115    1.250  197.721  197.726
 pw_transfer                       7209 10.2    0.592    0.703  177.727  178.482
 fft_wrap_pw1pw2                   6653 11.2    0.079    0.090  175.602  176.275
 fft_wrap_pw1pw2_180               4142 12.0   15.367   16.881  167.746  168.142
 fft3d_ps                          6653 13.2   72.970   78.879  128.981  131.263
 integrate_v_rspace                 278  8.1    0.009    0.010  114.365  114.959
 qs_rho_update_rho                  280  7.6    0.002    0.002  114.041  114.047
 density_rs2pw                      559  9.8    0.034    0.040  104.952  113.427
 tddfpt_apply_xc_analytic           480  8.0    1.877    2.115  108.183  108.800
 grid_collocate_task_list           559  9.8   89.721   96.048   89.721   96.048
 rs_pw_transfer                    3349 10.6    0.045    0.054   83.658   91.314
 tddfpt_construct_aux_fit_densi     241  8.0    0.005    0.007   75.526   76.134
 xc_calc_2nd_deriv_analytical       480  9.0    5.490    6.161   71.202   71.722
 mp_sync                           1541 10.7   49.771   71.440   49.771   71.440
 grid_integrate_task_list           278  9.1   61.700   64.686   61.700   64.686
 mp_alltoall_z22v                  6653 15.2   37.906   48.495   37.906   48.495
 potential_pw2rs                    278  9.1    0.044    0.050   46.691   47.283
 rs_pw_transfer_RS2PW_180           560 11.8   19.542   22.242   33.810   42.169
 mp_waitany                       78724 12.6   24.632   37.770   24.632   37.770
 -------------------------------------------------------------------------------

 The number of warnings for this run is : 3
 
 -------------------------------------------------------------------------------
  **** **** ******  **  PROGRAM ENDED AT                 2024-11-11 13:15:07.467
 ***** ** ***  *** **   PROGRAM RAN ON            bc12016.int.ets1.calculquebec.
 **    ****   ******    PROGRAM RAN BY                                  ekadashi
 ***** **    ** ** **   PROGRAM PROCESS ID                               3170497
  **** **  *******  **  PROGRAM STOPPED IN /scratch/ekadashi/Libra_CP2K/SiGe_Het
                                           ero/step2_B3LYP/SET2/job2
