 DBCSR| CPU Multiplication driver                                           XSMM
 DBCSR| Multrec recursion limit                                              512
 DBCSR| Multiplication stack size                                           1000
 DBCSR| Maximum elements for images                                    UNLIMITED
 DBCSR| Multiplicative factor virtual images                                   1
 DBCSR| Use multiplication densification                                       T
 DBCSR| Multiplication size stacks                                             3
 DBCSR| Use memory pool for CPU allocation                                     F
 DBCSR| Number of 3D layers                                               SINGLE
 DBCSR| Use MPI memory allocation                                              F
 DBCSR| Use RMA algorithm                                                      F
 DBCSR| Use Communication thread                                               T
 DBCSR| Communication thread load                                             87
 DBCSR| MPI: My node id                                                        0
 DBCSR| MPI: Number of nodes                                                  40
 DBCSR| OMP: Current number of threads                                         1
 DBCSR| OMP: Max number of threads                                             1
 DBCSR| Split modifier for TAS multiplication algorithm                  1.0E+00


  **** **** ******  **  PROGRAM STARTED AT               2024-11-11 11:15:14.330
 ***** ** ***  *** **   PROGRAM STARTED ON        bc12007.int.ets1.calculquebec.
 **    ****   ******    PROGRAM STARTED BY                              ekadashi
 ***** **    ** ** **   PROGRAM PROCESS ID                               2914620
  **** **  *******  **  PROGRAM STARTED IN /scratch/ekadashi/Libra_CP2K/SiGe_Het
                                           ero/step2_B3LYP/SET2/job1

 CP2K| version string:                                          CP2K version 9.1
 CP2K| source code revision number:                                  git:d8d7100
 CP2K| cp2kflags: omp libint fftw3 libxc parallel mpi3 scalapack xsmm plumed2   
 CP2K| is freely available from                            https://www.cp2k.org/
 CP2K| Program compiled at                       Thu 20 Jan 2022 10:47:29 PM UTC
 CP2K| Program compiled on                           build-node.computecanada.ca
 CP2K| Program compiled for                                   Linux-x86-64-gofbf
 CP2K| Data directory path    /cvmfs/soft.computecanada.ca/easybuild/software/20
 CP2K| Input file name                                       Diag_libra-2003.inp

 GLOBAL| Force Environment number                                              1
 GLOBAL| Basis set file name                                        BASIS_MOLOPT
 GLOBAL| Potential file name                                           POTENTIAL
 GLOBAL| MM Potential file name                                     MM_POTENTIAL
 GLOBAL| Coordinate file name                                     coord-2003.xyz
 GLOBAL| Method name                                                        CP2K
 GLOBAL| Project name                                            Diag_libra-2003
 GLOBAL| Run type                                                         ENERGY
 GLOBAL| FFT library                                                       FFTW3
 GLOBAL| Diagonalization library                                       ScaLAPACK
 GLOBAL| Orthonormality check for eigenvectors                          DISABLED
 GLOBAL| Matrix multiplication library                                 ScaLAPACK
 GLOBAL| All-to-all communication in single precision                          F
 GLOBAL| FFTs using library dependent lengths                                  F
 GLOBAL| Grid backend                                                       AUTO
 GLOBAL| Global print level                                               MEDIUM
 GLOBAL| MPI I/O enabled                                                       T
 GLOBAL| Total number of message passing processes                            40
 GLOBAL| Number of threads for this process                                    1
 GLOBAL| This output is from process                                           0
 GLOBAL| Stack size for threads created by OpenMP (OMP_STACKSIZE)        default
 GLOBAL| CPU model name                 Intel(R) Xeon(R) Gold 6148 CPU @ 2.40GHz
 GLOBAL| CPUID                                                              1003

 MEMORY| system memory details [Kb]
 MEMORY|                        rank 0           min           max       average
 MEMORY| MemTotal            196639196     196639196     196639196     196639196
 MEMORY| MemFree             175716520     175716520     175716520     175716520
 MEMORY| Buffers                    76            76            76            76
 MEMORY| Cached                4129920       4129920       4129920       4129920
 MEMORY| Slab                  2237260       2237260       2237260       2237260
 MEMORY| SReclaimable           396900        396900        396900        396900
 MEMORY| MemLikelyFree       180243416     180243416     180243416     180243416


 *** Fundamental physical constants (SI units) ***

 *** Literature: B. J. Mohr and B. N. Taylor,
 ***             CODATA recommended values of the fundamental physical
 ***             constants: 2006, Web Version 5.1
 ***             http://physics.nist.gov/constants

 Speed of light in vacuum [m/s]                             2.99792458000000E+08
 Magnetic constant or permeability of vacuum [N/A**2]       1.25663706143592E-06
 Electric constant or permittivity of vacuum [F/m]          8.85418781762039E-12
 Planck constant (h) [J*s]                                  6.62606896000000E-34
 Planck constant (h-bar) [J*s]                              1.05457162825177E-34
 Elementary charge [C]                                      1.60217648700000E-19
 Electron mass [kg]                                         9.10938215000000E-31
 Electron g factor [ ]                                     -2.00231930436220E+00
 Proton mass [kg]                                           1.67262163700000E-27
 Fine-structure constant                                    7.29735253760000E-03
 Rydberg constant [1/m]                                     1.09737315685270E+07
 Avogadro constant [1/mol]                                  6.02214179000000E+23
 Boltzmann constant [J/K]                                   1.38065040000000E-23
 Atomic mass unit [kg]                                      1.66053878200000E-27
 Bohr radius [m]                                            5.29177208590000E-11

 *** Conversion factors ***

 [u] -> [a.u.]                                              1.82288848426455E+03
 [Angstrom] -> [Bohr] = [a.u.]                              1.88972613288564E+00
 [a.u.] = [Bohr] -> [Angstrom]                              5.29177208590000E-01
 [a.u.] -> [s]                                              2.41888432650478E-17
 [a.u.] -> [fs]                                             2.41888432650478E-02
 [a.u.] -> [J]                                              4.35974393937059E-18
 [a.u.] -> [N]                                              8.23872205491840E-08
 [a.u.] -> [K]                                              3.15774647902944E+05
 [a.u.] -> [kJ/mol]                                         2.62549961709828E+03
 [a.u.] -> [kcal/mol]                                       6.27509468713739E+02
 [a.u.] -> [Pa]                                             2.94210107994716E+13
 [a.u.] -> [bar]                                            2.94210107994716E+08
 [a.u.] -> [atm]                                            2.90362800883016E+08
 [a.u.] -> [eV]                                             2.72113838565563E+01
 [a.u.] -> [Hz]                                             6.57968392072181E+15
 [a.u.] -> [1/cm] (wave numbers)                            2.19474631370540E+05
 [a.u./Bohr**2] -> [1/cm]                                   5.14048714338585E+03
 

 CELL_TOP| Volume [angstrom^3]:                                      6540.008810
 CELL_TOP| Vector a [angstrom    15.928     0.000     0.000   |a| =    15.927500
 CELL_TOP| Vector b [angstrom    -7.965    13.786     0.000   |b| =    15.921700
 CELL_TOP| Vector c [angstrom    -0.000     0.000    29.784   |c| =    29.783600
 CELL_TOP| Angle (b,c), alpha [degree]:                                89.999800
 CELL_TOP| Angle (a,c), beta  [degree]:                                90.000200
 CELL_TOP| Angle (a,b), gamma [degree]:                               120.015200
 CELL_TOP| Numerically orthorhombic:                                          NO

 GENERATE|  Preliminary Number of Bonds generated:                             0
 GENERATE|  Achieved consistency in connectivity generation.

 CELL| Volume [angstrom^3]:                                          6540.008810
 CELL| Vector a [angstrom]:      15.928     0.000     0.000   |a| =    15.927500
 CELL| Vector b [angstrom]:      -7.965    13.786     0.000   |b| =    15.921700
 CELL| Vector c [angstrom]:      -0.000     0.000    29.784   |c| =    29.783600
 CELL| Angle (b,c), alpha [degree]:                                    89.999800
 CELL| Angle (a,c), beta  [degree]:                                    90.000200
 CELL| Angle (a,b), gamma [degree]:                                   120.015200
 CELL| Numerically orthorhombic:                                              NO

 CELL_REF| Volume [angstrom^3]:                                      6540.008810
 CELL_REF| Vector a [angstrom    15.928     0.000     0.000   |a| =    15.927500
 CELL_REF| Vector b [angstrom    -7.965    13.786     0.000   |b| =    15.921700
 CELL_REF| Vector c [angstrom    -0.000     0.000    29.784   |c| =    29.783600
 CELL_REF| Angle (b,c), alpha [degree]:                                89.999800
 CELL_REF| Angle (a,c), beta  [degree]:                                90.000200
 CELL_REF| Angle (a,b), gamma [degree]:                               120.015200
 CELL_REF| Numerically orthorhombic:                                          NO

 *******************************************************************************
 *******************************************************************************
 **                                                                           **
 **     #####                         ##              ##                      **
 **    ##   ##            ##          ##              ##                      **
 **   ##     ##                       ##            ######                    **
 **   ##     ##  ##   ##  ##   #####  ##  ##   ####   ##    #####    #####    **
 **   ##     ##  ##   ##  ##  ##      ## ##   ##      ##   ##   ##  ##   ##   **
 **   ##  ## ##  ##   ##  ##  ##      ####     ###    ##   ######   ######    **
 **    ##  ###   ##   ##  ##  ##      ## ##      ##   ##   ##       ##        **
 **     #######   #####   ##   #####  ##  ##  ####    ##    #####   ##        **
 **           ##                                                    ##        **
 **                                                                           **
 **                                                ... make the atoms dance   **
 **                                                                           **
 **            Copyright (C) by CP2K developers group (2000-2021)             **
 **                      J. Chem. Phys. 152, 194103 (2020)                    **
 **                                                                           **
 *******************************************************************************

 DFT| Spin restricted Kohn-Sham (RKS) calculation                            RKS
 DFT| Multiplicity                                                             1
 DFT| Number of spin states                                                    1
 DFT| Charge                                                                   0
 DFT| Self-interaction correction (SIC)                                       NO
 DFT| Cutoffs: density                                              1.000000E-10
 DFT|          gradient                                             1.000000E-10
 DFT|          tau                                                  1.000000E-10
 DFT|          cutoff_smoothing_range                               0.000000E+00
 DFT| XC density smoothing                                                  NONE
 DFT| XC derivatives                                                          PW
 FUNCTIONAL| ROUTINE=NEW
 FUNCTIONAL| BECKE88:
 FUNCTIONAL| A. Becke, Phys. Rev. A 38, 3098 (1988) {LDA version}               
 FUNCTIONAL| LYP:
 FUNCTIONAL| C. Lee, W. Yang, R.G. Parr, Phys. Rev. B, 37, 785 (1988) {LDA versi
 FUNCTIONAL| on}                                                                
 FUNCTIONAL| VWN:
 FUNCTIONAL| S. H. Vosko, L. Wilk and M. Nusair, Can. J. Phys. 58, 1200 (1980) {
 FUNCTIONAL| LDA version}                                                       
 FUNCTIONAL| XALPHA:
 FUNCTIONAL| Dirac/Slater local exchange; parameter=  0.666 {LDA}               
 vdW POTENTIAL|                                                   Pair Potential
 vdW POTENTIAL|          DFT-D3 (Version 3.1)
 vdW POTENTIAL|          Potential Form: S. Grimme et al, JCP 132: 154104 (2010)
 vdW POTENTIAL|          Zero Damping
 vdW POTENTIAL|          Cutoff Radius [Bohr]:                             20.00
 vdW POTENTIAL|          s6 Scaling Factor:                               1.0000
 vdW POTENTIAL|          sr6 Scaling Factor:                              1.2610
 vdW POTENTIAL|          s8 Scaling Factor:                               1.7030
 vdW POTENTIAL|          Cutoff for CN calculation:                   0.1000E-05

 QS| Method:                                                                 GPW
 QS| Density plane wave grid type                        NON-SPHERICAL FULLSPACE
 QS| Number of grid levels:                                                    4
 QS| Density cutoff [a.u.]:                                                175.0
 QS| Multi grid cutoff [a.u.]: 1) grid level                               175.0
 QS|                           2) grid level                                58.3
 QS|                           3) grid level                                19.4
 QS|                           4) grid level                                 6.5
 QS| Grid level progression factor:                                          3.0
 QS| Relative density cutoff [a.u.]:                                        25.0
 QS| Interaction thresholds: eps_pgf_orb:                                1.0E-05
 QS|                         eps_filter_matrix:                          0.0E+00
 QS|                         eps_core_charge:                            1.0E-12
 QS|                         eps_rho_gspace:                             1.0E-10
 QS|                         eps_rho_rspace:                             1.0E-10
 QS|                         eps_gvg_rspace:                             1.0E-05
 QS|                         eps_ppl:                                    1.0E-02
 QS|                         eps_ppnl:                                   1.0E-07


 ATOMIC KIND INFORMATION

  1. Atomic kind: Si                                    Number of atoms:      32

     Orbital Basis Set                                     DZVP-MOLOPT-SR-GTH-q4

       Number of orbital shell sets:                                           1
       Number of orbital shells:                                               5
       Number of primitive Cartesian functions:                                4
       Number of Cartesian basis functions:                                   14
       Number of spherical basis functions:                                   13
       Norm type:                                                              2

       Normalised Cartesian orbitals:

                        Set   Shell   Orbital            Exponent    Coefficient

                          1       1    2s                1.256768       0.294045
                                                         0.506394      -0.015884
                                                         0.238884      -0.207657
                                                         0.087337      -0.036225

                          1       2    3s                1.256768      -1.532347
                                                         0.506394       0.524539
                                                         0.238884       0.025013
                                                         0.087337      -0.052203

                          1       3    3px               1.256768       0.152274
                                                         0.506394      -0.154145
                                                         0.238884      -0.115581
                                                         0.087337      -0.028372
                          1       3    3py               1.256768       0.152274
                                                         0.506394      -0.154145
                                                         0.238884      -0.115581
                                                         0.087337      -0.028372
                          1       3    3pz               1.256768       0.152274
                                                         0.506394      -0.154145
                                                         0.238884      -0.115581
                                                         0.087337      -0.028372

                          1       4    4px               1.256768       0.313378
                                                         0.506394      -0.415360
                                                         0.238884      -0.022539
                                                         0.087337       0.078473
                          1       4    4py               1.256768       0.313378
                                                         0.506394      -0.415360
                                                         0.238884      -0.022539
                                                         0.087337       0.078473
                          1       4    4pz               1.256768       0.313378
                                                         0.506394      -0.415360
                                                         0.238884      -0.022539
                                                         0.087337       0.078473

                          1       5    4dx2              1.256768       0.325879
                                                         0.506394       0.163831
                                                         0.238884       0.044076
                                                         0.087337       0.010608
                          1       5    4dxy              1.256768       0.564439
                                                         0.506394       0.283764
                                                         0.238884       0.076342
                                                         0.087337       0.018373
                          1       5    4dxz              1.256768       0.564439
                                                         0.506394       0.283764
                                                         0.238884       0.076342
                                                         0.087337       0.018373
                          1       5    4dy2              1.256768       0.325879
                                                         0.506394       0.163831
                                                         0.238884       0.044076
                                                         0.087337       0.010608
                          1       5    4dyz              1.256768       0.564439
                                                         0.506394       0.283764
                                                         0.238884       0.076342
                                                         0.087337       0.018373
                          1       5    4dz2              1.256768       0.325879
                                                         0.506394       0.163831
                                                         0.238884       0.044076
                                                         0.087337       0.010608

     Auxiliary Fit Basis Set                                               cFIT3

       Number of orbital shell sets:                                           4
       Number of orbital shells:                                               4
       Number of primitive Cartesian functions:                                6
       Number of Cartesian basis functions:                                    8
       Number of spherical basis functions:                                    8
       Norm type:                                                              2

       Normalised Cartesian orbitals:

                        Set   Shell   Orbital            Exponent    Coefficient

                          1       1    1s                0.096480       0.123378

                          2       1    1s                0.246960      -0.309315
                                                         1.277560       0.429908

                          3       1    1px               0.089490       0.069768
                          3       1    1py               0.089490       0.069768
                          3       1    1pz               0.089490       0.069768

                          4       1    1px               0.295630       0.313983
                                                         2.202470      -0.124968
                          4       1    1py               0.295630       0.313983
                                                         2.202470      -0.124968
                          4       1    1pz               0.295630       0.313983
                                                         2.202470      -0.124968

       Atomic covalent radius [Angstrom]:                                  1.110

       Atomic van der Waals radius [Angstrom]:                             2.100

     GTH Potential information for                                       GTH-PBE

       Description:                       Goedecker-Teter-Hutter pseudopotential
                                           Goedecker et al., PRB 54, 1703 (1996)
                                          Hartwigsen et al., PRB 58, 3641 (1998)
                                                      Krack, TCA 114, 145 (2005)

       Gaussian exponent of the core charge distribution:               2.582645
       Electronic configuration (s p d ...):                               2   2

       Parameters of the local part of the GTH pseudopotential:

                          rloc        C1          C2          C3          C4
                        0.440000   -6.269288

       Parameters of the non-local part of the GTH pseudopotential:

                   l      r(l)      h(i,j,l)

                   0    0.435634    8.951742   -2.706271
                                   -2.706271    3.493781
                   1    0.497942    2.431277

  2. Atomic kind: H                                     Number of atoms:      64

     Orbital Basis Set                                     DZVP-MOLOPT-SR-GTH-q1

       Number of orbital shell sets:                                           1
       Number of orbital shells:                                               3
       Number of primitive Cartesian functions:                                5
       Number of Cartesian basis functions:                                    5
       Number of spherical basis functions:                                    5
       Norm type:                                                              2

       Normalised Cartesian orbitals:

                        Set   Shell   Orbital            Exponent    Coefficient

                          1       1    2s               10.068468      -0.133023
                                                         2.680223      -0.177618
                                                         0.791502      -0.258419
                                                         0.239116      -0.107525
                                                         0.082193      -0.014019

                          1       2    3s               10.068468       0.344673
                                                         2.680223       1.819821
                                                         0.791502      -0.999069
                                                         0.239116       0.017430
                                                         0.082193       0.082660

                          1       3    3px              10.068468       0.155326
                                                         2.680223       0.367157
                                                         0.791502       0.311480
                                                         0.239116       0.080105
                                                         0.082193       0.033440
                          1       3    3py              10.068468       0.155326
                                                         2.680223       0.367157
                                                         0.791502       0.311480
                                                         0.239116       0.080105
                                                         0.082193       0.033440
                          1       3    3pz              10.068468       0.155326
                                                         2.680223       0.367157
                                                         0.791502       0.311480
                                                         0.239116       0.080105
                                                         0.082193       0.033440

     Auxiliary Fit Basis Set                                               cFIT3

       Number of orbital shell sets:                                           2
       Number of orbital shells:                                               2
       Number of primitive Cartesian functions:                                3
       Number of Cartesian basis functions:                                    2
       Number of spherical basis functions:                                    2
       Norm type:                                                              2

       Normalised Cartesian orbitals:

                        Set   Shell   Orbital            Exponent    Coefficient

                          1       1    1s                0.113290       0.139173

                          2       1    1s                0.551250       0.404894
                                                         3.585030       0.334062

       Atomic covalent radius [Angstrom]:                                  0.320

       Atomic van der Waals radius [Angstrom]:                             1.090

     GTH Potential information for                                       GTH-PBE

       Description:                       Goedecker-Teter-Hutter pseudopotential
                                           Goedecker et al., PRB 54, 1703 (1996)
                                          Hartwigsen et al., PRB 58, 3641 (1998)
                                                      Krack, TCA 114, 145 (2005)

       Gaussian exponent of the core charge distribution:              12.500000
       Electronic configuration (s p d ...):                                   1

       Parameters of the local part of the GTH pseudopotential:

                          rloc        C1          C2          C3          C4
                        0.200000   -4.178900    0.724463

  3. Atomic kind: Ge                                    Number of atoms:      32

     Orbital Basis Set                                     DZVP-MOLOPT-SR-GTH-q4

       Number of orbital shell sets:                                           1
       Number of orbital shells:                                               5
       Number of primitive Cartesian functions:                                4
       Number of Cartesian basis functions:                                   14
       Number of spherical basis functions:                                   13
       Norm type:                                                              2

       Normalised Cartesian orbitals:

                        Set   Shell   Orbital            Exponent    Coefficient

                          1       1    2s                3.751626      -0.120003
                                                         1.419172       0.428185
                                                         0.322428      -0.228255
                                                         0.110740      -0.068975

                          1       2    3s                3.751626       0.273885
                                                         1.419172      -0.836040
                                                         0.322428       0.584240
                                                         0.110740      -0.261045

                          1       3    3px               3.751626       0.064521
                                                         1.419172       0.216179
                                                         0.322428      -0.253385
                                                         0.110740      -0.035002
                          1       3    3py               3.751626       0.064521
                                                         1.419172       0.216179
                                                         0.322428      -0.253385
                                                         0.110740      -0.035002
                          1       3    3pz               3.751626       0.064521
                                                         1.419172       0.216179
                                                         0.322428      -0.253385
                                                         0.110740      -0.035002

                          1       4    4px               3.751626      -0.201632
                                                         1.419172      -0.391570
                                                         0.322428       0.486065
                                                         0.110740      -0.127990
                          1       4    4py               3.751626      -0.201632
                                                         1.419172      -0.391570
                                                         0.322428       0.486065
                                                         0.110740      -0.127990
                          1       4    4pz               3.751626      -0.201632
                                                         1.419172      -0.391570
                                                         0.322428       0.486065
                                                         0.110740      -0.127990

                          1       5    4dx2              3.751626      -0.158822
                                                         1.419172       0.193543
                                                         0.322428       0.178643
                                                         0.110740       0.009408
                          1       5    4dxy              3.751626      -0.275088
                                                         1.419172       0.335227
                                                         0.322428       0.309418
                                                         0.110740       0.016296
                          1       5    4dxz              3.751626      -0.275088
                                                         1.419172       0.335227
                                                         0.322428       0.309418
                                                         0.110740       0.016296
                          1       5    4dy2              3.751626      -0.158822
                                                         1.419172       0.193543
                                                         0.322428       0.178643
                                                         0.110740       0.009408
                          1       5    4dyz              3.751626      -0.275088
                                                         1.419172       0.335227
                                                         0.322428       0.309418
                                                         0.110740       0.016296
                          1       5    4dz2              3.751626      -0.158822
                                                         1.419172       0.193543
                                                         0.322428       0.178643
                                                         0.110740       0.009408

     Auxiliary Fit Basis Set                                               cFIT6

       Number of orbital shell sets:                                           4
       Number of orbital shells:                                               4
       Number of primitive Cartesian functions:                                6
       Number of Cartesian basis functions:                                    8
       Number of spherical basis functions:                                    8
       Norm type:                                                              2

       Normalised Cartesian orbitals:

                        Set   Shell   Orbital            Exponent    Coefficient

                          1       1    1s                0.110750       0.136826

                          2       1    1s                0.308366      -0.415436
                                                         1.178430       0.610195

                          3       1    1px               0.110745       0.091064
                          3       1    1py               0.110745       0.091064
                          3       1    1pz               0.110745       0.091064

                          4       1    1px               0.339941       0.397306
                                                         1.591237      -0.423312
                          4       1    1py               0.339941       0.397306
                                                         1.591237      -0.423312
                          4       1    1pz               0.339941       0.397306
                                                         1.591237      -0.423312

       Atomic covalent radius [Angstrom]:                                  1.220

       Atomic van der Waals radius [Angstrom]:                             2.110

     GTH Potential information for                                       GTH-PBE

       Description:                       Goedecker-Teter-Hutter pseudopotential
                                           Goedecker et al., PRB 54, 1703 (1996)
                                          Hartwigsen et al., PRB 58, 3641 (1998)
                                                      Krack, TCA 114, 145 (2005)

       Gaussian exponent of the core charge distribution:               1.714678
       Electronic configuration (s p d ...):                               2   2

       Parameters of the local part of the GTH pseudopotential:

                          rloc        C1          C2          C3          C4
                        0.540000

       Parameters of the non-local part of the GTH pseudopotential:

                   l      r(l)      h(i,j,l)

                   0    0.421865    7.510241   -0.588108   -1.447976
                                   -0.588108   -1.595888    3.738657
                                   -1.447976    3.738657   -2.967467
                   1    0.567529    0.913860    0.546875
                                    0.546875   -0.647072
                   2    0.813914    0.197177


 MOLECULE KIND INFORMATION


 All atoms are their own molecule, skipping detailed information


 TOTAL NUMBERS AND MAXIMUM NUMBERS

  Total number of            - Atomic kinds:                                   3
                             - Atoms:                                        128
                             - Shell sets:                                   128
                             - Shells:                                       512
                             - Primitive Cartesian functions:                576
                             - Cartesian basis functions:                   1216
                             - Spherical basis functions:                   1152

  Maximum angular momentum of- Orbital basis functions:                        2
                             - Local part of the GTH pseudopotential:          2
                             - Non-local part of the GTH pseudopotential:      4

  AUX_FIT ADMM-Basis: 
  Total number of            - Shell sets:                                   384
                             - Shells:                                       384
                             - Primitive Cartesian functions:                576
                             - Cartesian basis functions:                    640
                             - Spherical basis functions:                    640
                               Maximum angular momentum                        1


 MODULE QUICKSTEP:  ATOMIC COORDINATES IN angstrom

 Atom  Kind  Element       X           Y           Z          Z(eff)       Mass
    1   1 Si  14       0.279668    2.356989    1.886226       4.0000     28.0855
    2   1 Si  14       2.213591    1.114982    2.346164       4.0000     28.0855
    3   1 Si  14       4.045985    2.239171    1.519824       4.0000     28.0855
    4   1 Si  14       6.008622    1.161533    2.336603       4.0000     28.0855
    5   1 Si  14      -1.881564    5.700397    1.874495       4.0000     28.0855
    6   1 Si  14       0.091134    4.536615    2.648660       4.0000     28.0855
    7   1 Si  14       1.970555    5.808233    1.825291       4.0000     28.0855
    8   1 Si  14       4.108317    4.586070    2.318772       4.0000     28.0855
    9   2 H    1       0.622305    2.363959    0.454045       1.0000      1.0079
   10   2 H    1       2.258464    0.859435    3.816726       1.0000      1.0079
   11   2 H    1       1.782005    3.570057    5.242346       1.0000      1.0079
   12   2 H    1       3.701463    2.257216    8.938447       1.0000      1.0079
   13   2 H    1       4.003347    2.302419    0.074698       1.0000      1.0079
   14   2 H    1       5.863776    0.984628    3.818551       1.0000      1.0079
   15   2 H    1      -1.736478    3.525541    5.064932       1.0000      1.0079
   16   2 H    1      -0.254653    2.896066    9.335088       1.0000      1.0079
   17   2 H    1      -1.620372    5.670452    0.410968       1.0000      1.0079
   18   2 H    1       0.072776    4.442606    4.145492       1.0000      1.0079
   19   2 H    1       3.958696    0.005255    5.158123       1.0000      1.0079
   20   2 H    1       1.766577    5.983392    9.097073       1.0000      1.0079
   21   2 H    1       1.664103    5.854742    0.325178       1.0000      1.0079
   22   2 H    1       4.275868    4.309764    3.832982       1.0000      1.0079
   23   2 H    1       0.148472    0.247308    5.568566       1.0000      1.0079
   24   2 H    1      -2.259595    6.009008    8.791897       1.0000      1.0079
   25   3 Ge  32       1.878837    3.656947    6.846578       4.0000     72.6400
   26   3 Ge  32       3.877914    2.379075    7.406335       4.0000     72.6400
   27   3 Ge  32      -1.939313    3.415650    6.539144       4.0000     72.6400
   28   3 Ge  32      -0.095783    2.617308    7.795838       4.0000     72.6400
   29   3 Ge  32       3.950679    0.056732    6.656392       4.0000     72.6400
   30   3 Ge  32       1.770422    5.984017    7.565931       4.0000     72.6400
   31   3 Ge  32       0.050610    0.264233    7.142166       4.0000     72.6400
   32   3 Ge  32      -2.208113    5.780475    7.243430       4.0000     72.6400
   33   1 Si  14       8.028686    2.270409    1.780705       4.0000     28.0855
   34   1 Si  14      10.072393    1.102133    2.291231       4.0000     28.0855
   35   1 Si  14      12.169828    2.280860    1.794285       4.0000     28.0855
   36   1 Si  14      14.244604    1.210643    2.409013       4.0000     28.0855
   37   1 Si  14       6.175028    5.739737    1.680107       4.0000     28.0855
   38   1 Si  14       8.184399    4.620660    2.476651       4.0000     28.0855
   39   1 Si  14      10.029398    5.740978    1.628103       4.0000     28.0855
   40   1 Si  14      11.987413    4.543192    2.256883       4.0000     28.0855
   41   2 H    1       7.979702    2.532813    0.355862       1.0000      1.0079
   42   2 H    1      10.004647    0.966490    3.748938       1.0000      1.0079
   43   2 H    1       9.582127    3.289912    5.107064       1.0000      1.0079
   44   2 H    1      12.049448    2.051956    8.804219       1.0000      1.0079
   45   2 H    1      12.106226    2.299926    0.329173       1.0000      1.0079
   46   2 H    1      14.194784    0.849867    3.843847       1.0000      1.0079
   47   2 H    1       6.217902    3.507718    5.270381       1.0000      1.0079
   48   2 H    1       7.879691    2.269267    9.129944       1.0000      1.0079
   49   2 H    1       6.395226    5.656575    0.206888       1.0000      1.0079
   50   2 H    1       8.080480    4.711789    4.001830       1.0000      1.0079
   51   2 H    1      12.372776   -0.811112    5.374066       1.0000      1.0079
   52   2 H    1      10.140055    5.759371    8.750591       1.0000      1.0079
   53   2 H    1       9.913478    5.554474    0.111599       1.0000      1.0079
   54   2 H    1      12.033232    4.683586    3.764592       1.0000      1.0079
   55   2 H    1       7.941443    0.244080    5.234050       1.0000      1.0079
   56   2 H    1       5.926600    5.884474    9.033012       1.0000      1.0079
   57   3 Ge  32       9.983978    3.232665    6.610161       4.0000     72.6400
   58   3 Ge  32      12.110947    2.093654    7.214720       4.0000     72.6400
   59   3 Ge  32       6.065134    3.260089    6.739497       4.0000     72.6400
   60   3 Ge  32       8.059386    2.255339    7.616761       4.0000     72.6400
   61   3 Ge  32      12.191532   -0.347853    6.821242       4.0000     72.6400
   62   3 Ge  32       9.742501    5.625196    7.272252       4.0000     72.6400
   63   3 Ge  32       7.930413   -0.003071    6.687418       4.0000     72.6400
   64   3 Ge  32       5.870376    5.676046    7.491562       4.0000     72.6400
   65   1 Si  14      -3.830367    9.152944    1.483870       4.0000     28.0855
   66   1 Si  14      -1.798379    8.093751    2.295358       4.0000     28.0855
   67   1 Si  14       0.206053    9.194855    1.546897       4.0000     28.0855
   68   1 Si  14       2.238545    8.265699    2.118754       4.0000     28.0855
   69   1 Si  14      -5.847227   12.661669    1.437021       4.0000     28.0855
   70   1 Si  14      -3.936504   11.433759    2.100517       4.0000     28.0855
   71   1 Si  14      -1.815850   12.728624    1.525005       4.0000     28.0855
   72   1 Si  14       0.169794   11.567443    2.231016       4.0000     28.0855
   73   2 H    1      -4.092822    8.844429    0.052424       1.0000      1.0079
   74   2 H    1      -2.039763    8.110773    3.789588       1.0000      1.0079
   75   2 H    1      -1.672210   10.467143    5.139208       1.0000      1.0079
   76   2 H    1      -0.393391    8.961967    9.145409       1.0000      1.0079
   77   2 H    1      -0.088319    9.291341    0.060543       1.0000      1.0079
   78   2 H    1       2.082396    8.316983    3.565661       1.0000      1.0079
   79   2 H    1      -6.686700   10.631915    5.449535       1.0000      1.0079
   80   2 H    1      -3.895555    8.811676    8.759512       1.0000      1.0079
   81   2 H    1      -5.794751   12.898725   -0.132872       1.0000      1.0079
   82   2 H    1      -4.038640   11.170420    3.580872       1.0000      1.0079
   83   2 H    1      -0.067974    7.537211    5.005431       1.0000      1.0079
   84   2 H    1      -2.106936   12.689421    8.892562       1.0000      1.0079
   85   2 H    1      -1.986015   12.671758    0.020041       1.0000      1.0079
   86   2 H    1       0.159653   11.674898    3.771599       1.0000      1.0079
   87   2 H    1      -4.109094    6.611843    4.785641       1.0000      1.0079
   88   2 H    1      -5.459690   12.796045    9.184961       1.0000      1.0079
   89   3 Ge  32      -2.058138   10.311929    6.592232       4.0000     72.6400
   90   3 Ge  32      -0.250536    9.106184    7.576135       4.0000     72.6400
   91   3 Ge  32      -6.207506   10.225042    6.937714       4.0000     72.6400
   92   3 Ge  32      -4.079134    9.043322    7.194318       4.0000     72.6400
   93   3 Ge  32      -0.259236    6.997055    6.458407       4.0000     72.6400
   94   3 Ge  32      -2.041928   12.691267    7.363398       4.0000     72.6400
   95   3 Ge  32      -4.193737    6.810792    6.318163       4.0000     72.6400
   96   3 Ge  32      -5.927479   12.734975    7.706631       4.0000     72.6400
   97   1 Si  14       4.184022    9.252909    1.302960       4.0000     28.0855
   98   1 Si  14       6.052030    8.035982    2.182868       4.0000     28.0855
   99   1 Si  14       8.115673    9.055473    1.486637       4.0000     28.0855
  100   1 Si  14      10.135926    8.075637    2.249825       4.0000     28.0855
  101   1 Si  14       2.085261   12.641710    1.413737       4.0000     28.0855
  102   1 Si  14       4.199322   11.529875    1.992339       4.0000     28.0855
  103   1 Si  14       6.222441   12.653825    1.404879       4.0000     28.0855
  104   1 Si  14       8.116997   11.317965    1.971987       4.0000     28.0855
  105   2 H    1       4.041004    9.252886   -0.167915       1.0000      1.0079
  106   2 H    1       5.858231    8.279494    3.610540       1.0000      1.0079
  107   2 H    1       6.314167   10.257481    5.811735       1.0000      1.0079
  108   2 H    1       7.981127    9.061416    9.748849       1.0000      1.0079
  109   2 H    1       8.018040    8.852486   -0.007912       1.0000      1.0079
  110   2 H    1      10.188856    8.120928    3.747168       1.0000      1.0079
  111   2 H    1       1.850796   10.161795    5.321801       1.0000      1.0079
  112   2 H    1       3.623645    8.982836    9.201677       1.0000      1.0079
  113   2 H    1       1.920656   12.789191   -0.062808       1.0000      1.0079
  114   2 H    1       4.371010   11.347776    3.448335       1.0000      1.0079
  115   2 H    1       8.164986    7.511560    5.510427       1.0000      1.0079
  116   2 H    1       6.257476   12.833338    9.559739       1.0000      1.0079
  117   2 H    1       6.444700   12.981244   -0.046934       1.0000      1.0079
  118   2 H    1       8.053771   11.252376    3.451183       1.0000      1.0079
  119   2 H    1       4.003440    6.784244    5.374606       1.0000      1.0079
  120   2 H    1       2.154356   12.760842    9.019730       1.0000      1.0079
  121   3 Ge  32       6.017827   10.346715    7.394647       4.0000     72.6400
  122   3 Ge  32       7.898095    8.998427    8.219399       4.0000     72.6400
  123   3 Ge  32       1.784724   10.174806    6.919252       4.0000     72.6400
  124   3 Ge  32       3.864182    9.093027    7.715616       4.0000     72.6400
  125   3 Ge  32       7.775845    6.924988    6.832551       4.0000     72.6400
  126   3 Ge  32       6.234568   12.643690    8.011022       4.0000     72.6400
  127   3 Ge  32       3.865317    6.877086    6.861418       4.0000     72.6400
  128   3 Ge  32       2.062832   12.600941    7.490501       4.0000     72.6400




 SCF PARAMETERS         Density guess:                                   RESTART
                        --------------------------------------------------------
                        max_scf:                                              50
                        max_scf_history:                                       0
                        max_diis:                                              4
                        --------------------------------------------------------
                        eps_scf:                                        1.00E-06
                        eps_scf_history:                                0.00E+00
                        eps_diis:                                       1.00E-01
                        eps_eigval:                                     1.00E-05
                        --------------------------------------------------------
                        level_shift [a.u.]:                                 0.00
                        added MOs                                        50    0
                        --------------------------------------------------------
                        Mixing method:                            BROYDEN_MIXING
                                                charge density mixing in g-space
                        --------------------------------------------------------
                        No outer SCF

 PW_GRID| Information for grid number                                          1
 PW_GRID| Grid distributed over                                    40 processors
 PW_GRID| Real space group dimensions                                    40    1
 PW_GRID| the grid is blocked:                                                NO
 PW_GRID| Cutoff [a.u.]                                                    175.0
 PW_GRID| spherical cutoff:                                                   NO
 PW_GRID|   Bounds   1            -90      89                Points:         180
 PW_GRID|   Bounds   2            -90      89                Points:         180
 PW_GRID|   Bounds   3           -180     179                Points:         360
 PW_GRID| Volume element (a.u.^3)  0.3784E-02     Volume (a.u.^3)     44134.1676
 PW_GRID| Grid span                                                    FULLSPACE
 PW_GRID|   Distribution                         Average         Max         Min
 PW_GRID|   G-Vectors                           291600.0      291600      291600
 PW_GRID|   G-Rays                                1620.0        1620        1620
 PW_GRID|   Real Space Points                   291600.0      324000      259200

 PW_GRID| Information for grid number                                          2
 PW_GRID| Number of the reference grid                                         1
 PW_GRID| Grid distributed over                                    40 processors
 PW_GRID| Real space group dimensions                                    40    1
 PW_GRID| the grid is blocked:                                                NO
 PW_GRID| Cutoff [a.u.]                                                     58.3
 PW_GRID| spherical cutoff:                                                   NO
 PW_GRID|   Bounds   1            -54      53                Points:         108
 PW_GRID|   Bounds   2            -54      53                Points:         108
 PW_GRID|   Bounds   3           -100      99                Points:         200
 PW_GRID| Volume element (a.u.^3)  0.1892E-01     Volume (a.u.^3)     44134.1676
 PW_GRID| Grid span                                                    FULLSPACE
 PW_GRID|   Distribution                         Average         Max         Min
 PW_GRID|   G-Vectors                            58320.0       59724       57024
 PW_GRID|   G-Rays                                 540.0         553         528
 PW_GRID|   Real Space Points                    58320.0       64800       43200

 PW_GRID| Information for grid number                                          3
 PW_GRID| Number of the reference grid                                         1
 PW_GRID| Grid distributed over                                    40 processors
 PW_GRID| Real space group dimensions                                    40    1
 PW_GRID| the grid is blocked:                                                NO
 PW_GRID| Cutoff [a.u.]                                                     19.4
 PW_GRID| spherical cutoff:                                                   NO
 PW_GRID|   Bounds   1            -30      29                Points:          60
 PW_GRID|   Bounds   2            -30      29                Points:          60
 PW_GRID|   Bounds   3            -60      59                Points:         120
 PW_GRID| Volume element (a.u.^3)  0.1022         Volume (a.u.^3)     44134.1676
 PW_GRID| Grid span                                                    FULLSPACE
 PW_GRID|   Distribution                         Average         Max         Min
 PW_GRID|   G-Vectors                            10800.0       11040       10380
 PW_GRID|   G-Rays                                 180.0         184         173
 PW_GRID|   Real Space Points                    10800.0       14400        7200

 PW_GRID| Information for grid number                                          4
 PW_GRID| Number of the reference grid                                         1
 PW_GRID| Grid distributed over                                    40 processors
 PW_GRID| Real space group dimensions                                     5    8
 PW_GRID| the grid is blocked:                                                NO
 PW_GRID| Cutoff [a.u.]                                                      6.5
 PW_GRID| spherical cutoff:                                                   NO
 PW_GRID|   Bounds   1            -18      17                Points:          36
 PW_GRID|   Bounds   2            -18      17                Points:          36
 PW_GRID|   Bounds   3            -36      35                Points:          72
 PW_GRID| Volume element (a.u.^3)  0.4730         Volume (a.u.^3)     44134.1676
 PW_GRID| Grid span                                                    FULLSPACE
 PW_GRID|   Distribution                         Average         Max         Min
 PW_GRID|   G-Vectors                             2332.8        2520        2160
 PW_GRID|   G-Rays                                  64.8          70          60
 PW_GRID|   Real Space Points                     2332.8        2880        2016

 POISSON| Solver                                                        PERIODIC
 POISSON| Periodicity                                                        XYZ

 RS_GRID| Information for grid number                                          1
 RS_GRID|   Bounds   1            -90      89                Points:         180
 RS_GRID|   Bounds   2            -90      89                Points:         180
 RS_GRID|   Bounds   3           -180     179                Points:         360
 RS_GRID| Real space distribution over                                  4 groups
 RS_GRID| Real space distribution along direction                              2
 RS_GRID| Border size                                                         38
 RS_GRID| Real space distribution over                                 10 groups
 RS_GRID| Real space distribution along direction                              3
 RS_GRID| Border size                                                         38
 RS_GRID|   Distribution                         Average         Max         Min
 RS_GRID|   Planes                                 121.0         121         121
 RS_GRID|   Distribution                         Average         Max         Min
 RS_GRID|   Planes                                 112.0         112         112

 RS_GRID| Information for grid number                                          2
 RS_GRID|   Bounds   1            -54      53                Points:         108
 RS_GRID|   Bounds   2            -54      53                Points:         108
 RS_GRID|   Bounds   3           -100      99                Points:         200
 RS_GRID| Real space distribution over                                  4 groups
 RS_GRID| Real space distribution along direction                              2
 RS_GRID| Border size                                                         38
 RS_GRID| Real space distribution over                                 10 groups
 RS_GRID| Real space distribution along direction                              3
 RS_GRID| Border size                                                         38
 RS_GRID|   Distribution                         Average         Max         Min
 RS_GRID|   Planes                                 103.0         103         103
 RS_GRID|   Distribution                         Average         Max         Min
 RS_GRID|   Planes                                  96.0          96          96

 RS_GRID| Information for grid number                                          3
 RS_GRID|   Bounds   1            -30      29                Points:          60
 RS_GRID|   Bounds   2            -30      29                Points:          60
 RS_GRID|   Bounds   3            -60      59                Points:         120
 RS_GRID| Real space fully replicated
 RS_GRID| Group size                                                           1

 RS_GRID| Information for grid number                                          4
 RS_GRID|   Bounds   1            -18      17                Points:          36
 RS_GRID|   Bounds   2            -18      17                Points:          36
 RS_GRID|   Bounds   3            -36      35                Points:          72
 RS_GRID| Real space fully replicated
 RS_GRID| Group size                                                           1

  HFX_INFO| Replica ID:                                                        1
  HFX_INFO| FRACTION:                                               0.2000000000
  HFX_INFO| Interaction Potential:                                     TRUNCATED
  HFX_INFO| Cutoff Radius [angstrom]:                               6.0000000000
  HFX_INFO| EPS_SCHWARZ:                                                 1.0E-08
  HFX_INFO| EPS_SCHWARZ_FORCES                                           1.0E-06
  HFX_INFO| EPS_STORAGE_SCALING:                                         1.0E-01
  HFX_INFO| NBINS:                                                            64
  HFX_INFO| BLOCK_SIZE:                                                        2
  HFX_INFO| NUMBER_OF_SHELLS:                                               AUTO
  HFX_INFO| Number of periodic shells considered:                             -1
  HFX_INFO| Number of periodic cells considered:                              27


 Number of electrons:                                                        320
 Number of occupied orbitals:                                                160
 Number of molecular orbitals:                                               210

 Number of orbital functions:                                               1152
 Number of independent orbital functions:                                   1152

 Extrapolation method: initial_guess

 *** WARNING in qs_initial_guess.F:309 :: User requested to restart the    ***
 *** wavefunction from the file named: Diag_libra-2003-RESTART.wfn. This   ***
 *** file does not exist. Please check the existence of the file or change ***
 *** properly the value of the keyword WFN_RESTART_FILE_NAME. Calculation  ***
 *** continues using ATOMIC GUESS.                                         ***


 Atomic guess: The first density matrix is obtained in terms of atomic orbitals
               and electronic configurations assigned to each atomic kind

 Guess for atomic kind: Si

 Electronic structure
    Total number of core electrons                                         10.00
    Total number of valence electrons                                       4.00
    Total number of electrons                                              14.00
    Multiplicity                                                   not specified
    S   [  2.00  2.00] 2.00
    P   [  6.00] 2.00


 *******************************************************************************
                  Iteration          Convergence                     Energy [au]
 *******************************************************************************
                          1        0.526541E-01                  -3.659692963728
                          2        0.125823E-01                  -3.661785675622
                          3        0.408986E-04                  -3.661911567360
                          4        0.675570E-07                  -3.661911568709

 Energy components [Hartree]           Total Energy ::           -3.661911568709
                                        Band Energy ::           -0.941881516273
                                     Kinetic Energy ::            1.409736465412
                                   Potential Energy ::           -5.071648034121
                                      Virial (-V/T) ::            3.597585902439
                                        Core Energy ::           -5.690149137281
                                          XC Energy ::           -0.992569238249
                                     Coulomb Energy ::            3.020806806821
                       Total Pseudopotential Energy ::           -7.143143335066
                       Local Pseudopotential Energy ::           -8.006124475851
                    Nonlocal Pseudopotential Energy ::            0.862981140786
                                        Confinement ::            0.432577323720

 Orbital energies  State     L     Occupation   Energy[a.u.]          Energy[eV]

                       1     0          2.000      -0.357276           -9.721984

                       1     1          2.000      -0.113664           -3.092965


 Total Electron Density at R=0:                                         0.000026

 Guess for atomic kind: H

 Electronic structure
    Total number of core electrons                                          0.00
    Total number of valence electrons                                       1.00
    Total number of electrons                                               1.00
    Multiplicity                                                   not specified
    S      1.00


 *******************************************************************************
                  Iteration          Convergence                     Energy [au]
 *******************************************************************************
                          1        0.250972E-02                  -0.375256815885
                          2        0.570752E-04                  -0.375258666164
                          3        0.832405E-09                  -0.375258667122

 Energy components [Hartree]           Total Energy ::           -0.375258667122
                                        Band Energy ::           -0.076317618391
                                     Kinetic Energy ::            0.771356566341
                                   Potential Energy ::           -1.146615233463
                                      Virial (-V/T) ::            1.486491829455
                                        Core Energy ::           -0.456090715790
                                          XC Energy ::           -0.314218627334
                                     Coulomb Energy ::            0.395050676003
                       Total Pseudopotential Energy ::           -1.238482237174
                       Local Pseudopotential Energy ::           -1.238482237174
                    Nonlocal Pseudopotential Energy ::            0.000000000000
                                        Confinement ::            0.110349550431

 Orbital energies  State     L     Occupation   Energy[a.u.]          Energy[eV]

                       1     0          1.000      -0.076318           -2.076708


 Total Electron Density at R=0:                                         0.425022

 Guess for atomic kind: Ge

 Electronic structure
    Total number of core electrons                                         28.00
    Total number of valence electrons                                       4.00
    Total number of electrons                                              32.00
    Multiplicity                                                   not specified
    S   [  2.00  2.00  2.00] 2.00
    P   [  6.00  6.00] 2.00
    D   [ 10.00]


 *******************************************************************************
                  Iteration          Convergence                     Energy [au]
 *******************************************************************************
                          1        0.142224                      -3.669910672039
                          2        0.333188E-01                  -3.687823698339
                          3        0.522642E-04                  -3.688875018994
                          4        0.333285E-05                  -3.688875020047
                          5        0.154106E-05                  -3.688875020053
                          6        0.996835E-06                  -3.688875020055

 Energy components [Hartree]           Total Energy ::           -3.688875020055
                                        Band Energy ::           -0.991816616960
                                     Kinetic Energy ::            1.446010121603
                                   Potential Energy ::           -5.134885141658
                                      Virial (-V/T) ::            3.551071368687
                                        Core Energy ::           -5.696847161393
                                          XC Energy ::           -0.988567154744
                                     Coulomb Energy ::            2.996539296082
                       Total Pseudopotential Energy ::           -7.185566698510
                       Local Pseudopotential Energy ::           -7.622158091196
                    Nonlocal Pseudopotential Energy ::            0.436591392686
                                        Confinement ::            0.427094155139

 Orbital energies  State     L     Occupation   Energy[a.u.]          Energy[eV]

                       1     0          2.000      -0.391724          -10.659354

                       1     1          2.000      -0.104184           -2.834997


 Total Electron Density at R=0:                                         0.000078
 Re-scaling the density matrix to get the right number of electrons
                  # Electrons              Trace(P)               Scaling factor
                          320               320.000                        1.000


 SCF WAVEFUNCTION OPTIMIZATION

  Step     Update method      Time    Convergence         Total energy    Change
  ------------------------------------------------------------------------------

  HFX_MEM_INFO| Est. max. program size before HFX [MiB]:                     522

 *** WARNING in hfx_energy_potential.F:591 :: The Kohn Sham matrix is not  ***
 *** 100% occupied. This may result in incorrect Hartree-Fock results. Try ***
 *** to decrease EPS_PGF_ORB and EPS_FILTER_MATRIX in the QS section. For  ***
 *** more information see FAQ: https://www.cp2k.org/faq:hfx_eps_warning    ***

  HFX_MEM_INFO| Number of cart. primitive ERI's calculated:          16105157319
  HFX_MEM_INFO| Number of sph. ERI's calculated:                      4153202035
  HFX_MEM_INFO| Number of sph. ERI's stored in-core:                  4153201757
  HFX_MEM_INFO| Number of sph. ERI's stored on disk:                           0
  HFX_MEM_INFO| Number of sph. ERI's calculated on the fly:                    0
  HFX_MEM_INFO| Total memory consumption ERI's RAM [MiB]:                   6524
  HFX_MEM_INFO| Whereof max-vals [MiB]:                                      277
  HFX_MEM_INFO| Total compression factor ERI's RAM:                         4.86
  HFX_MEM_INFO| Total memory consumption ERI's disk [MiB]:                     0
  HFX_MEM_INFO| Total compression factor ERI's disk:                        0.00
  HFX_MEM_INFO| Size of density/Fock matrix [MiB]:                             2
  HFX_MEM_INFO| Size of buffers [MiB]:                                         1
  HFX_MEM_INFO| Number of periodic image cells considered:                    27
  HFX_MEM_INFO| Est. max. program size after HFX  [MiB]:                     688

     1 NoMix/Diag. 0.30E+00   46.4     1.29517600      -266.0102813887 -2.66E+02
     2 Broy./Diag. 0.30E+00    6.5     0.69628686      -275.9025932912 -9.89E+00
     3 Broy./Diag. 0.30E+00    6.2     0.37665733      -281.7225018518 -5.82E+00
     4 Broy./Diag. 0.30E+00    6.2     0.08180729      -284.5057256939 -2.78E+00
     5 Broy./Diag. 0.30E+00    6.5     0.03731838      -286.2747777481 -1.77E+00
     6 Broy./Diag. 0.30E+00    6.3     0.01530851      -287.3817657562 -1.11E+00
     7 Broy./Diag. 0.30E+00    6.5     0.00653551      -287.7894767295 -4.08E-01
     8 Broy./Diag. 0.30E+00    6.3     0.00798896      -287.7846717402  4.80E-03
     9 Broy./Diag. 0.30E+00    6.6     0.00548261      -287.8265472907 -4.19E-02
    10 Broy./Diag. 0.30E+00    6.4     0.00798227      -287.8479205378 -2.14E-02
    11 Broy./Diag. 0.30E+00    6.3     0.00490142      -287.8466541051  1.27E-03
    12 Broy./Diag. 0.30E+00    6.5     0.00330741      -287.9199953894 -7.33E-02
    13 Broy./Diag. 0.30E+00    6.3     0.00111929      -287.9582459833 -3.83E-02
    14 Broy./Diag. 0.30E+00    6.5     0.00209374      -287.9508036373  7.44E-03
    15 Broy./Diag. 0.30E+00    6.3     0.00081567      -287.9576399993 -6.84E-03
    16 Broy./Diag. 0.30E+00    6.6     0.00140303      -287.9532144302  4.43E-03
    17 Broy./Diag. 0.30E+00    6.3     0.00065827      -287.9510877916  2.13E-03
    18 Broy./Diag. 0.30E+00    6.3     0.00050312      -287.9471957847  3.89E-03
    19 Broy./Diag. 0.30E+00    6.6     0.00049426      -287.9461912368  1.00E-03
    20 Broy./Diag. 0.30E+00    6.4     0.00009968      -287.9512820291 -5.09E-03
    21 Broy./Diag. 0.30E+00    6.5     0.00014938      -287.9531494910 -1.87E-03
    22 Broy./Diag. 0.30E+00    6.3     0.00008318      -287.9529984399  1.51E-04
    23 Broy./Diag. 0.30E+00    6.6     0.00007478      -287.9533210508 -3.23E-04
    24 Broy./Diag. 0.30E+00    6.4     0.00005940      -287.9535733008 -2.52E-04
    25 Broy./Diag. 0.30E+00    6.3     0.00004345      -287.9543865551 -8.13E-04
    26 Broy./Diag. 0.30E+00    6.5     0.00005989      -287.9548133417 -4.27E-04
    27 Broy./Diag. 0.30E+00    6.3     0.00002991      -287.9550975329 -2.84E-04
    28 Broy./Diag. 0.30E+00    6.5     0.00001293      -287.9555923153 -4.95E-04
    29 Broy./Diag. 0.30E+00    6.3     0.00000916      -287.9559551328 -3.63E-04
    30 Broy./Diag. 0.30E+00    6.6     0.00001930      -287.9560317112 -7.66E-05
    31 Broy./Diag. 0.30E+00    6.3     0.00001123      -287.9560184718  1.32E-05
    32 Broy./Diag. 0.30E+00    6.3     0.00000722      -287.9558642731  1.54E-04
    33 Broy./Diag. 0.30E+00    6.5     0.00000587      -287.9557648285  9.94E-05
    34 Broy./Diag. 0.30E+00    6.3     0.00000561      -287.9559008825 -1.36E-04
    35 Broy./Diag. 0.30E+00    6.5     0.00000295      -287.9559815779 -8.07E-05
    36 Broy./Diag. 0.30E+00    6.3     0.00000236      -287.9560018857 -2.03E-05
    37 Broy./Diag. 0.30E+00    6.6     0.00000069      -287.9560207040 -1.88E-05

  *** SCF run converged in    37 steps ***


  Electronic density on regular grids:       -319.9999999982        0.0000000018
  Core density on regular grids:              319.9999999279       -0.0000000721
  Total charge density on r-space grids:       -0.0000000703
  Total charge density g-space grids:          -0.0000000703

  Overlap energy of the core charge distribution:               0.00002134144391
  Self energy of the core charge distribution:               -685.99374549079380
  Core Hamiltonian energy:                                    163.94988991025696
  Hartree energy:                                             331.57805523095362
  Exchange-correlation energy:                                -79.86493817309695
  Hartree-Fock Exchange energy:                               -17.17913157732484
  Dispersion energy:                                           -0.44617194542910

  Total energy:                                              -287.95602070399019

   Calculate PDOS at iteration step                                  0

              ---- PDOS: start iteration on the KS states --- 

 *******************************************************************************
 **                                                                           **
 **         ######## #######   #######   ######## #######  ########           **
 **            ##    ##     ## ##     ## ##       ##   ##     ##              **
 **            ##    ##     ## ##     ## ######   #######     ##              **
 **            ##    ##     ## ##     ## ##       ##          ##              **
 **            ##    #######   #######   ##       ##          ##              **
 **                                                                           **
 *******************************************************************************
 
 -------------------------------------------------------------------------------
 -                            TDDFPT Initial Guess                             -
 -------------------------------------------------------------------------------
          State         Occupied      ->      Virtual          Excitation
          number         orbital              orbital          energy (eV)
 -------------------------------------------------------------------------------
             1              160                  161              1.83881
             2              159                  161              2.00984
             3              160                  162              2.03763
             4              160                  163              2.06032
             5              160                  164              2.12667
             6              160                  165              2.19196
             7              159                  162              2.20866
             8              159                  163              2.23136
             9              159                  164              2.29770
            10              159                  165              2.36299
            11              160                  166              2.39579
            12              160                  167              2.43268
            13              160                  168              2.54357
            14              160                  169              2.54974
            15              159                  166              2.56682
            16              160                  170              2.59278
            17              159                  167              2.60371
            18              160                  171              2.63912
            19              160                  172              2.64802
            20              159                  168              2.71460

      Number of active states:                                     158720
 -------------------------------------------------------------------------------
 
 -------------------------------------------------------------------------------
 -                      TDDFPT WAVEFUNCTION OPTIMIZATION                       -
 -------------------------------------------------------------------------------

          Step            Time         Convergence           Conv. states
 -------------------------------------------------------------------------------

    State    Exc. energy (eV)      Convergence (eV)
        1       1.6091768            -2.2963E-01
        2       1.7772692            -2.3257E-01
        3       1.8111086            -2.2652E-01
        4       1.9771861            -8.3137E-02
        5       1.9842615            -1.4241E-01
        6       2.0307179            -1.6124E-01
        7       2.0921366            -1.1653E-01
        8       2.1527226            -7.8633E-02
        9       2.2145975            -8.3101E-02
       10       2.2174133            -1.4558E-01
       11       2.2701340            -1.2565E-01
       12       2.2793352            -1.5335E-01
       13       2.3368193            -2.0675E-01
       14       2.3656588            -1.8408E-01
       15       2.4630187            -1.0380E-01
       16       2.4813060            -1.1147E-01
       17       2.5117791            -9.1935E-02
       18       2.5142269            -1.2490E-01
       19       2.5389657            -1.0906E-01
       20       2.5518977            -1.6270E-01

             1           123.9          8.5469E-03                      0

    State    Exc. energy (eV)      Convergence (eV)
        1       1.5735843            -3.5593E-02
        2       1.7389625            -3.8307E-02
        3       1.8038304            -7.2782E-03
        4       1.9681254            -9.0607E-03
        5       1.9764179            -7.8437E-03
        6       2.0196115            -1.1106E-02
        7       2.0790588            -1.3078E-02
        8       2.1440462            -8.6764E-03
        9       2.1851568            -2.9441E-02
       10       2.1924319            -2.4981E-02
       11       2.2348653            -3.5269E-02
       12       2.2560997            -2.3235E-02
       13       2.3208074            -1.6012E-02
       14       2.3554754            -1.0183E-02
       15       2.3676038            -9.5415E-02
       16       2.4241552            -5.7151E-02
       17       2.4440315            -6.7748E-02
       18       2.4670649            -4.7162E-02
       19       2.5149693            -2.3996E-02
       20       2.5201615            -3.1736E-02

             2           123.6          3.5064E-03                      0

    State    Exc. energy (eV)      Convergence (eV)
        1       1.5674775            -6.1068E-03
        2       1.7324550            -6.5074E-03
        3       1.8031425            -6.8787E-04
        4       1.9672658            -8.5964E-04
        5       1.9757352            -6.8268E-04
        6       2.0180578            -1.5537E-03
        7       2.0771165            -1.9424E-03
        8       2.1423409            -1.7053E-03
        9       2.1805284            -4.6284E-03
       10       2.1883779            -4.0540E-03
       11       2.2258243            -9.0409E-03
       12       2.2519232            -4.1766E-03
       13       2.3101770            -1.0630E-02
       14       2.3511004            -4.3750E-03
       15       2.3551204            -1.2483E-02
       16       2.3660680            -5.8087E-02
       17       2.3892568            -5.4775E-02
       18       2.4512908            -1.5774E-02
       19       2.4836515            -3.1318E-02
       20       2.5049968            -1.5165E-02

             3           124.0          2.1347E-03                      0

    State    Exc. energy (eV)      Convergence (eV)
        1       1.5670088            -4.6873E-04
[...]
 flops     5 x    18 x    13             19169280       0.0%    100.0%      0.0%
 flops     8 x     2 x    18             41537088       0.0%    100.0%      0.0%
 flops     2 x     8 x    18             41814144       0.0%    100.0%      0.0%
 flops    13 x    18 x    13             49840128       0.0%    100.0%      0.0%
 flops     5 x     1 x     5             67076000       0.0%    100.0%      0.0%
 flops     5 x     5 x    18             71033400       0.0%    100.0%      0.0%
 flops     2 x     2 x    32            102922752       0.0%    100.0%      0.0%
 flops     5 x     1 x    13            174653440       0.0%    100.0%      0.0%
 flops    13 x     1 x     5            174653440       0.0%    100.0%      0.0%
 flops     8 x     8 x    18            177315840       0.0%    100.0%      0.0%
 flops     5 x    13 x    18            182108160       0.0%    100.0%      0.0%
 flops    13 x     5 x    18            182108160       0.0%    100.0%      0.0%
 flops   283 x   111 x    32            371929920       0.0%    100.0%      0.0%
 flops   286 x   111 x    32            375872640       0.0%    100.0%      0.0%
 flops   288 x   111 x    32            378501120       0.0%    100.0%      0.0%
 flops   295 x   111 x    32            387700800       0.0%    100.0%      0.0%
 flops     8 x     2 x    32            443062272       0.0%    100.0%      0.0%
 flops     2 x     8 x    32            446017536       0.0%    100.0%      0.0%
 flops    13 x     1 x    13            454098944       0.0%    100.0%      0.0%
 flops    13 x    13 x    18            480879360       0.0%    100.0%      0.0%
 flops     5 x     5 x    32            757689600       0.0%    100.0%      0.0%
 flops   283 x   113 x    32           1135894080       0.0%    100.0%      0.0%
 flops   286 x   113 x    32           1147935360       0.0%    100.0%      0.0%
 flops   288 x   113 x    32           1155962880       0.0%    100.0%      0.0%
 flops   283 x   116 x    32           1166050560       0.0%    100.0%      0.0%
 flops   286 x   116 x    32           1178411520       0.0%    100.0%      0.0%
 flops   295 x   113 x    32           1184059200       0.0%    100.0%      0.0%
 flops   283 x   118 x    32           1186154880       0.0%    100.0%      0.0%
 flops   288 x   116 x    32           1186652160       0.0%    100.0%      0.0%
 flops   286 x   118 x    32           1198728960       0.0%    100.0%      0.0%
 flops   288 x   118 x    32           1207111680       0.0%    100.0%      0.0%
 flops   295 x   116 x    32           1215494400       0.0%    100.0%      0.0%
 flops   295 x   118 x    32           1236451200       0.0%    100.0%      0.0%
 flops     8 x     8 x    32           1891368960       0.0%    100.0%      0.0%
 flops     5 x    13 x    32           1942487040       0.0%    100.0%      0.0%
 flops    13 x     5 x    32           1942487040       0.0%    100.0%      0.0%
 flops    13 x    13 x    32           5129379840       0.0%    100.0%      0.0%
 flops     2 x    32 x     2           6558105600       0.0%    100.0%      0.0%
 flops     5 x    32 x     5          28034496000       0.0%    100.0%      0.0%
 flops     2 x    32 x     8          28835020800       0.0%    100.0%      0.0%
 flops     8 x    32 x     2          28835020800       0.0%    100.0%      0.0%
 flops     5 x    32 x    13          72996618240       0.0%    100.0%      0.0%
 flops    13 x    32 x     5          72996618240       0.0%    100.0%      0.0%
 flops     8 x    32 x     8         120795955200       0.0%    100.0%      0.0%
 flops    13 x    32 x    13         189791207424       0.0%    100.0%      0.0%
 flops inhomo. stacks                           0       0.0%      0.0%      0.0%
 flops total                       579.363836E+09       0.0%    100.0%      0.0%
 flops max/rank                     24.605262E+09       0.0%    100.0%      0.0%
 matmuls inhomo. stacks                         0       0.0%      0.0%      0.0%
 matmuls total                          191218708       0.0%    100.0%      0.0%
 number of processed stacks               2194440       0.0%    100.0%      0.0%
 average stack size                                     0.0      87.1       0.0
 marketing flops                   590.272791E+09
 -------------------------------------------------------------------------------
 # multiplications                           1486
 max memory usage/rank             869.023744E+06
 # max total images/rank                        5
 # max 3D layers                                1
 # MPI messages exchanged                 1961520
 MPI messages size (bytes):
  total size                       127.309570E+09
  min size                           0.000000E+00
  max size                         177.000000E+03
  average size                      64.903527E+03
 MPI breakdown and total messages size (bytes):
             size <=      128              531060                        0
       128 < size <=     8192               19740                  9528192
      8192 < size <=    32768              386412               7377351552
     32768 < size <=   131072              601668              59551012944
    131072 < size <=  4194304              422640              60362712720
   4194304 < size <= 16777216                   0                        0
  16777216 < size                               0                        0
 -------------------------------------------------------------------------------

 *** WARNING in dbcsr_mm.F:294 :: Using a non-square number of MPI ranks ***
 *** might lead to poor performance. Used ranks: 40 Suggested: 36 81     ***

 -------------------------------------------------------------------------------
 -                                                                             -
 -                      DBCSR MESSAGE PASSING PERFORMANCE                      -
 -                                                                             -
 -------------------------------------------------------------------------------
 ROUTINE             CALLS      AVE VOLUME [Bytes]
 MP_Bcast               49                     12.
 MP_Allreduce         5109                      8.
 MP_Alltoall         46574                  32984.
 MP_ISend           112712                  32026.
 MP_IRecv           118432                  29993.
 -------------------------------------------------------------------------------

 -------------------------------------------------------------------------------
 -                                                                             -
 -                                GRID STATISTICS                              -
 -                                                                             -
 -------------------------------------------------------------------------------
 LP    KERNEL             BACKEND                              COUNT     PERCENT
 1     collocate general  REF                                8872878      16.33%
 3     collocate general  REF                                8746683      16.09%
 3     integrate general  REF                                8673489      15.96%
 0     collocate general  REF                                7289348      13.41%
 2     collocate general  REF                                7269514      13.38%
 2     integrate general  REF                                4578840       8.42%
 4     collocate general  REF                                4477904       8.24%
 4     integrate general  REF                                4440432       8.17%
 -------------------------------------------------------------------------------

 MEMORY| Estimated peak process memory [MiB]                                 829

 -------------------------------------------------------------------------------
 ----                             MULTIGRID INFO                            ----
 -------------------------------------------------------------------------------
 count for grid        1:         222320          cutoff [a.u.]          175.00
 count for grid        2:         200107          cutoff [a.u.]           58.33
 count for grid        3:         186232          cutoff [a.u.]           19.44
 count for grid        4:          73834          cutoff [a.u.]            6.48
 total gridlevel count  :         682493

 -------------------------------------------------------------------------------
 -                                                                             -
 -                         MESSAGE PASSING PERFORMANCE                         -
 -                                                                             -
 -------------------------------------------------------------------------------

 ROUTINE             CALLS      AVE VOLUME [Bytes]
 MP_Group                4
 MP_Bcast              642                1733450.
 MP_Allreduce        22067                    305.
 MP_Sync              1330
 MP_Alltoall          7127               10024015.
 MP_ISendRecv        74256                  63193.
 MP_Wait            148668
 MP_comm_split          69
 MP_ISend            67162                 299674.
 MP_IRecv            67982                 297162.
 MP_Recv               378                 149650.
 -------------------------------------------------------------------------------


 -------------------------------------------------------------------------------
 -                                                                             -
 -                           R E F E R E N C E S                               -
 -                                                                             -
 -------------------------------------------------------------------------------
 
 CP2K version 9.1, the CP2K developers group (2021).
 CP2K is freely available from https://www.cp2k.org/ .

 Kuehne,Thomas D.; Iannuzzi,Marcella; Del Ben,Mauro;
 Rybkin,Vladimir V.; Seewald,Patrick; Stein,Frederick; Laino,Teodoro;
 Khaliullin,Rustam Z.; Schuett,Ole; Schiffmann,Florian; Golze,Dorothea;
 Wilhelm,Jan; Chulkov,Sergey; Bani-Hashemian,Mohammad Hossein;
 Weber,Valery; Borstnik,Urban; Taillefumier,Mathieu;
 Jakobovits,Alice Shoshana; Lazzaro,Alfio; Pabst,Hans; Mueller,Tiziano;
 Schade,Robert; Guidon,Manuel; Andermatt,Samuel; Holmberg,Nico;
 Schenter,Gregory K.; Hehn,Anna; Bussy,Augustin; Belleflamme,Fabian;
 Tabacchi,Gloria; Gloess,Andreas; Lass,Michael; Bethune,Iain;
 Mundy,Christopher J.; Plessl,Christian; Watkins,Matt;
 VandeVondele,Joost; Krack,Matthias; Hutter,Juerg. 
 The Journal of Chemical Physics, 152 (19), (2020). 
 CP2K: An electronic structure and molecular dynamics software package -
 Quickstep: Efficient and accurate electronic structure calculations.
 https://doi.org/10.1063/5.0007045

 Goerigk, Lars; Hansen, Andreas; Bauer, Christoph; Ehrlich, Stephan;
 Najibi, Asim; Grimme, Stefan. , 19 (48), (2017). 
 A look at the density functional theory zoo with the advanced GMTKN55 database
 for general main group thermochemistry, kinetics and noncovalent interactions.
 https://doi.org/10.1039/C7CP04913G

 Schuett, Ole; Messmer, Peter; Hutter, Juerg; VandeVondele, Joost. 
 Electronic Structure Calculations on Graphics Processing Units, John
 Wiley & Sons, Ltd, 173-190 (2016). 
 GPU-Accelerated Sparse Matrix-Matrix Multiplication for
 Linear Scaling Density Functional Theory.
 https://doi.org/10.1002/9781118670712.ch8

 Heinecke, A; Henry, G; Hutchinson, M; Pabst, H. 
 Proceedings of Intl. Supercomputing Conference, 981-991 (2016). 
 LIBXSMM: Accelerating Small Matrix Multiplications
 by Runtime Code Generation.
 https://doi.org/10.1109/SC.2016.83

 Borstnik, U; VandeVondele, J; Weber, V; Hutter, J. 
 PARALLEL COMPUTING, 40 (5-6), 47-58 (2014). 
 Sparse matrix multiplication: The distributed block-compressed sparse
 row library.
 https://doi.org/10.1016/j.parco.2014.03.012

 Hutter, J; Iannuzzi, M; Schiffmann, F; VandeVondele, J. 
 WIREs Comput Mol Sci., 4 (1), 15-25 (2014). 
 CP2K: atomistic simulations of condensed matter systems.
 https://doi.org/10.1002/wcms.1159

 Grimme, S; Ehrlich, S; Goerigk, L. 
 JOURNAL OF COMPUTATIONAL CHEMISTRY, 32, 1456 (2011). 
 Effect of the damping function in dispersion corrected density functional theory.
 https://doi.org/10.1002/jcc.21759

 Guidon, M; Hutter, J; VandeVondele, J. 
 JOURNAL OF CHEMICAL THEORY AND COMPUTATION, 6 (8), 2348-2364 (2010). 
 Auxiliary Density Matrix Methods for Hartree-Fock Exchange Calculations.
 https://doi.org/10.1021/ct1002225

 Grimme, S; Antony, J; Ehrlich, S; Krieg, H. 
 JOURNAL OF CHEMICAL PHYSICS, 132 (15), 154104 (2010). 
 A consistent and accurate ab initio parametrization of density
 functional dispersion correction (DFT-D) for the 94 elements H-Pu.
 https://doi.org/10.1063/1.3382344

 Guidon, M; Hutter, J; VandeVondele, J. 
 JOURNAL OF CHEMICAL THEORY AND COMPUTATION, 5 (11), 3010-3021 (2009). 
 Robust Periodic Hartree-Fock Exchange for Large-Scale Simulations Using
 Gaussian Basis Sets.
 https://doi.org/10.1021/ct900494g

 Guidon, M; Schiffmann, F; Hutter, J; VandeVondele, J. 
 JOURNAL OF CHEMICAL PHYSICS, 128 (21), 214104 (2008). 
 Ab initio molecular dynamics using hybrid density functionals.
 https://doi.org/10.1063/1.2931945

 VandeVondele, J; Hutter, J. 
 JOURNAL OF CHEMICAL PHYSICS, 127 (11), 114105 (2007). 
 Gaussian basis sets for accurate calculations on molecular systems in
 gas and condensed phases.
 https://doi.org/10.1063/1.2770708

 Krack, M. 
 THEORETICAL CHEMISTRY ACCOUNTS, 114 (1-3), 145-152 (2005). 
 Pseudopotentials for H to Kr optimized for gradient-corrected
 exchange-correlation functionals.
 https://doi.org/10.1007/s00214-005-0655-y

 VandeVondele, J; Krack, M; Mohamed, F; Parrinello, M; Chassaing, T;
 Hutter, J. COMPUTER PHYSICS COMMUNICATIONS, 167 (2), 103-128 (2005). 
 QUICKSTEP: Fast and accurate density functional calculations using a
 mixed Gaussian and plane waves approach.
 https://doi.org/10.1016/j.cpc.2004.12.014

 Frigo, M; Johnson, SG. 
 PROCEEDINGS OF THE IEEE, 93 (2), 216-231 (2005). 
 The design and implementation of FFTW3.
 https://doi.org/10.1109/JPROC.2004.840301

 Iannuzzi, M; Chassaing, T; Wallman, T; Hutter, J. 
 CHIMIA, 59 (7-8), 499-503 (2005). 
 Ground and excited state density functional calculations with the
 Gaussian and augmented-plane-wave method.
 https://doi.org/10.2533/000942905777676164

 Martin,Richard L.. 
 The Journal of Chemical Physics, 118 (11), 4775-4777 (2003). 
 Natural transition orbitals.
 https://doi.org/10.1063/1.1558471

 Hartwigsen, C; Goedecker, S; Hutter, J. 
 PHYSICAL REVIEW B, 58 (7), 3641-3662 (1998). 
 Relativistic separable dual-space Gaussian pseudopotentials from H to Rn.
 https://doi.org/10.1103/PhysRevB.58.3641

 Lippert, G; Hutter, J; Parrinello, M. 
 MOLECULAR PHYSICS, 92 (3), 477-487 (1997). 
 A hybrid Gaussian and plane wave density functional scheme.
 https://doi.org/10.1080/002689797170220

 Goedecker, S; Teter, M; Hutter, J. 
 PHYSICAL REVIEW B, 54 (3), 1703-1710 (1996). 
 Separable dual-space Gaussian pseudopotentials.
 https://doi.org/10.1103/PhysRevB.54.1703

 BECKE, AD. PHYSICAL REVIEW A, 38 (6), 3098-3100 (1988). 
 DENSITY-FUNCTIONAL EXCHANGE-ENERGY APPROXIMATION WITH CORRECT
 ASYMPTOTIC-BEHAVIOR.
 https://doi.org/10.1103/PhysRevA.38.3098

 LEE, CT; YANG, WT; PARR, RG. 
 PHYSICAL REVIEW B, 37 (2), 785-789 (1988). 
 DEVELOPMENT OF THE COLLE-SALVETTI CORRELATION-ENERGY FORMULA INTO A
 FUNCTIONAL OF THE ELECTRON-DENSITY.
 https://doi.org/10.1103/PhysRevB.37.785

 VOSKO, SH; WILK, L; NUSAIR, M. 
 CANADIAN JOURNAL OF PHYSICS, 58 (8), 1200-1211 (1980). 
 ACCURATE SPIN-DEPENDENT ELECTRON LIQUID CORRELATION ENERGIES FOR LOCAL
 SPIN-DENSITY CALCULATIONS - A CRITICAL ANALYSIS.
 https://doi.org/10.1139/p80-159


 -------------------------------------------------------------------------------
 -                                                                             -
 -                                T I M I N G                                  -
 -                                                                             -
 -------------------------------------------------------------------------------
 SUBROUTINE                       CALLS  ASD         SELF TIME        TOTAL TIME
                                MAXIMUM       AVERAGE  MAXIMUM  AVERAGE  MAXIMUM
 CP2K                                 1  1.0    0.038    0.056 1526.084 1526.091
 qs_energies                          1  2.0    0.000    0.000 1525.443 1525.450
 qs_energies_properties               1  3.0    0.000    0.000 1243.796 1243.804
 tddfpt                               1  4.0    0.000    0.001 1243.796 1243.804
 tddfpt_davidson_solver               2  5.0    0.002    0.004 1239.166 1239.172
 tddfpt_compute_Aop_evects           10  6.0    0.000    0.000 1231.723 1231.729
 integrate_four_center              237  9.0    0.295    0.679 1102.353 1102.359
 integrate_four_center_main         237 10.0    0.074    0.084 1055.829 1080.610
 integrate_four_center_bin        15168 11.0 1055.754 1080.538 1055.754 1080.538
 tddfpt_apply_hfx                    10  7.0    0.004    0.008  900.947  900.951
 tddft_hfx_matrix                   200  8.0    0.004    0.005  895.416  895.421
 fhxc_kernel                         10  7.0    0.009    0.010  329.460  329.462
 scf_env_do_scf                       1  3.0    0.000    0.000  278.038  280.319
 scf_env_do_scf_inner_loop           37  4.0    0.001    0.006  278.038  280.319
 qs_ks_update_qs_env                 37  5.0    0.000    0.000  251.813  251.815
 rebuild_ks_matrix                   37  6.0    0.000    0.000  251.803  251.804
 qs_ks_build_kohn_sham_matrix        37  7.0    0.005    0.005  251.803  251.804
 hfx_ks_matrix                       37  8.0    0.001    0.001  206.954  206.955
 calculate_rho_elec                 477  8.8    0.950    1.063  168.446  168.454
 pw_transfer                       6144 10.2    0.512    0.625  152.176  152.559
 fft_wrap_pw1pw2                   5670 11.2    0.067    0.079  150.376  150.726
 fft_wrap_pw1pw2_180               3528 12.0   12.953   14.123  143.893  144.319
 fft3d_ps                          5670 13.2   61.950   66.503  110.824  112.277
 density_rs2pw                      477  9.8    0.029    0.033   89.320   97.194
 qs_rho_update_rho                  239  7.5    0.002    0.002   97.164   97.170
 integrate_v_rspace                 237  8.2    0.008    0.009   95.948   96.423
 tddfpt_apply_xc_analytic           400  8.0    1.558    1.759   91.583   92.136
 grid_collocate_task_list           477  9.8   76.507   81.897   76.507   81.897
 rs_pw_transfer                    2857 10.6    0.038    0.045   70.682   78.499
 tddfpt_construct_aux_fit_densi     201  8.0    0.004    0.006   62.757   63.210
 mp_sync                           1330 10.7   40.748   62.222   40.748   62.222
 xc_calc_2nd_deriv_analytical       400  9.0    4.533    5.264   60.679   60.855
 grid_integrate_task_list           237  9.2   52.609   55.163   52.609   55.163
 mp_alltoall_z22v                  5670 15.2   33.526   41.853   33.526   41.853
 potential_pw2rs                    237  9.2    0.038    0.042   39.092   39.631
 rs_pw_transfer_RS2PW_180           478 11.7   16.672   18.523   29.881   37.493
 mp_waitany                       67162 12.6   21.075   32.223   21.075   32.223
 -------------------------------------------------------------------------------

 The number of warnings for this run is : 3
 
 -------------------------------------------------------------------------------
  **** **** ******  **  PROGRAM ENDED AT                 2024-11-11 11:40:59.565
 ***** ** ***  *** **   PROGRAM RAN ON            bc12007.int.ets1.calculquebec.
 **    ****   ******    PROGRAM RAN BY                                  ekadashi
 ***** **    ** ** **   PROGRAM PROCESS ID                               2914620
  **** **  *******  **  PROGRAM STOPPED IN /scratch/ekadashi/Libra_CP2K/SiGe_Het
                                           ero/step2_B3LYP/SET2/job1
