 DBCSR| CPU Multiplication driver                                           XSMM
 DBCSR| Multrec recursion limit                                              512
 DBCSR| Multiplication stack size                                           1000
 DBCSR| Maximum elements for images                                    UNLIMITED
 DBCSR| Multiplicative factor virtual images                                   1
 DBCSR| Use multiplication densification                                       T
 DBCSR| Multiplication size stacks                                             3
 DBCSR| Use memory pool for CPU allocation                                     F
 DBCSR| Number of 3D layers                                               SINGLE
 DBCSR| Use MPI memory allocation                                              F
 DBCSR| Use RMA algorithm                                                      F
 DBCSR| Use Communication thread                                               T
 DBCSR| Communication thread load                                             87
 DBCSR| MPI: My node id                                                        0
 DBCSR| MPI: Number of nodes                                                  40
 DBCSR| OMP: Current number of threads                                         1
 DBCSR| OMP: Max number of threads                                             1
 DBCSR| Split modifier for TAS multiplication algorithm                  1.0E+00


  **** **** ******  **  PROGRAM STARTED AT               2024-11-11 11:41:34.408
 ***** ** ***  *** **   PROGRAM STARTED ON        bc12007.int.ets1.calculquebec.
 **    ****   ******    PROGRAM STARTED BY                              ekadashi
 ***** **    ** ** **   PROGRAM PROCESS ID                               2929056
  **** **  *******  **  PROGRAM STARTED IN /scratch/ekadashi/Libra_CP2K/SiGe_Het
                                           ero/step2_B3LYP/SET2/job1

 CP2K| version string:                                          CP2K version 9.1
 CP2K| source code revision number:                                  git:d8d7100
 CP2K| cp2kflags: omp libint fftw3 libxc parallel mpi3 scalapack xsmm plumed2   
 CP2K| is freely available from                            https://www.cp2k.org/
 CP2K| Program compiled at                       Thu 20 Jan 2022 10:47:29 PM UTC
 CP2K| Program compiled on                           build-node.computecanada.ca
 CP2K| Program compiled for                                   Linux-x86-64-gofbf
 CP2K| Data directory path    /cvmfs/soft.computecanada.ca/easybuild/software/20
 CP2K| Input file name                                       Diag_libra-2004.inp

 GLOBAL| Force Environment number                                              1
 GLOBAL| Basis set file name                                        BASIS_MOLOPT
 GLOBAL| Potential file name                                           POTENTIAL
 GLOBAL| MM Potential file name                                     MM_POTENTIAL
 GLOBAL| Coordinate file name                                     coord-2004.xyz
 GLOBAL| Method name                                                        CP2K
 GLOBAL| Project name                                            Diag_libra-2004
 GLOBAL| Run type                                                         ENERGY
 GLOBAL| FFT library                                                       FFTW3
 GLOBAL| Diagonalization library                                       ScaLAPACK
 GLOBAL| Orthonormality check for eigenvectors                          DISABLED
 GLOBAL| Matrix multiplication library                                 ScaLAPACK
 GLOBAL| All-to-all communication in single precision                          F
 GLOBAL| FFTs using library dependent lengths                                  F
 GLOBAL| Grid backend                                                       AUTO
 GLOBAL| Global print level                                               MEDIUM
 GLOBAL| MPI I/O enabled                                                       T
 GLOBAL| Total number of message passing processes                            40
 GLOBAL| Number of threads for this process                                    1
 GLOBAL| This output is from process                                           0
 GLOBAL| Stack size for threads created by OpenMP (OMP_STACKSIZE)        default
 GLOBAL| CPU model name                 Intel(R) Xeon(R) Gold 6148 CPU @ 2.40GHz
 GLOBAL| CPUID                                                              1003

 MEMORY| system memory details [Kb]
 MEMORY|                        rank 0           min           max       average
 MEMORY| MemTotal            196639196     196639196     196639196     196639196
 MEMORY| MemFree             175691756     175691756     175692176     175692165
 MEMORY| Buffers                    76            76            76            76
 MEMORY| Cached                4157148       4157144       4157148       4157144
 MEMORY| Slab                  2237492       2236900       2237492       2236914
 MEMORY| SReclaimable           398532        397988        398532        398001
 MEMORY| MemLikelyFree       180247512     180247384     180247512     180247387


 *** Fundamental physical constants (SI units) ***

 *** Literature: B. J. Mohr and B. N. Taylor,
 ***             CODATA recommended values of the fundamental physical
 ***             constants: 2006, Web Version 5.1
 ***             http://physics.nist.gov/constants

 Speed of light in vacuum [m/s]                             2.99792458000000E+08
 Magnetic constant or permeability of vacuum [N/A**2]       1.25663706143592E-06
 Electric constant or permittivity of vacuum [F/m]          8.85418781762039E-12
 Planck constant (h) [J*s]                                  6.62606896000000E-34
 Planck constant (h-bar) [J*s]                              1.05457162825177E-34
 Elementary charge [C]                                      1.60217648700000E-19
 Electron mass [kg]                                         9.10938215000000E-31
 Electron g factor [ ]                                     -2.00231930436220E+00
 Proton mass [kg]                                           1.67262163700000E-27
 Fine-structure constant                                    7.29735253760000E-03
 Rydberg constant [1/m]                                     1.09737315685270E+07
 Avogadro constant [1/mol]                                  6.02214179000000E+23
 Boltzmann constant [J/K]                                   1.38065040000000E-23
 Atomic mass unit [kg]                                      1.66053878200000E-27
 Bohr radius [m]                                            5.29177208590000E-11

 *** Conversion factors ***

 [u] -> [a.u.]                                              1.82288848426455E+03
 [Angstrom] -> [Bohr] = [a.u.]                              1.88972613288564E+00
 [a.u.] = [Bohr] -> [Angstrom]                              5.29177208590000E-01
 [a.u.] -> [s]                                              2.41888432650478E-17
 [a.u.] -> [fs]                                             2.41888432650478E-02
 [a.u.] -> [J]                                              4.35974393937059E-18
 [a.u.] -> [N]                                              8.23872205491840E-08
 [a.u.] -> [K]                                              3.15774647902944E+05
 [a.u.] -> [kJ/mol]                                         2.62549961709828E+03
 [a.u.] -> [kcal/mol]                                       6.27509468713739E+02
 [a.u.] -> [Pa]                                             2.94210107994716E+13
 [a.u.] -> [bar]                                            2.94210107994716E+08
 [a.u.] -> [atm]                                            2.90362800883016E+08
 [a.u.] -> [eV]                                             2.72113838565563E+01
 [a.u.] -> [Hz]                                             6.57968392072181E+15
 [a.u.] -> [1/cm] (wave numbers)                            2.19474631370540E+05
 [a.u./Bohr**2] -> [1/cm]                                   5.14048714338585E+03
 

 CELL_TOP| Volume [angstrom^3]:                                      6540.008810
 CELL_TOP| Vector a [angstrom    15.928     0.000     0.000   |a| =    15.927500
 CELL_TOP| Vector b [angstrom    -7.965    13.786     0.000   |b| =    15.921700
 CELL_TOP| Vector c [angstrom    -0.000     0.000    29.784   |c| =    29.783600
 CELL_TOP| Angle (b,c), alpha [degree]:                                89.999800
 CELL_TOP| Angle (a,c), beta  [degree]:                                90.000200
 CELL_TOP| Angle (a,b), gamma [degree]:                               120.015200
 CELL_TOP| Numerically orthorhombic:                                          NO

 GENERATE|  Preliminary Number of Bonds generated:                             0
 GENERATE|  Achieved consistency in connectivity generation.

 CELL| Volume [angstrom^3]:                                          6540.008810
 CELL| Vector a [angstrom]:      15.928     0.000     0.000   |a| =    15.927500
 CELL| Vector b [angstrom]:      -7.965    13.786     0.000   |b| =    15.921700
 CELL| Vector c [angstrom]:      -0.000     0.000    29.784   |c| =    29.783600
 CELL| Angle (b,c), alpha [degree]:                                    89.999800
 CELL| Angle (a,c), beta  [degree]:                                    90.000200
 CELL| Angle (a,b), gamma [degree]:                                   120.015200
 CELL| Numerically orthorhombic:                                              NO

 CELL_REF| Volume [angstrom^3]:                                      6540.008810
 CELL_REF| Vector a [angstrom    15.928     0.000     0.000   |a| =    15.927500
 CELL_REF| Vector b [angstrom    -7.965    13.786     0.000   |b| =    15.921700
 CELL_REF| Vector c [angstrom    -0.000     0.000    29.784   |c| =    29.783600
 CELL_REF| Angle (b,c), alpha [degree]:                                89.999800
 CELL_REF| Angle (a,c), beta  [degree]:                                90.000200
 CELL_REF| Angle (a,b), gamma [degree]:                               120.015200
 CELL_REF| Numerically orthorhombic:                                          NO

 *******************************************************************************
 *******************************************************************************
 **                                                                           **
 **     #####                         ##              ##                      **
 **    ##   ##            ##          ##              ##                      **
 **   ##     ##                       ##            ######                    **
 **   ##     ##  ##   ##  ##   #####  ##  ##   ####   ##    #####    #####    **
 **   ##     ##  ##   ##  ##  ##      ## ##   ##      ##   ##   ##  ##   ##   **
 **   ##  ## ##  ##   ##  ##  ##      ####     ###    ##   ######   ######    **
 **    ##  ###   ##   ##  ##  ##      ## ##      ##   ##   ##       ##        **
 **     #######   #####   ##   #####  ##  ##  ####    ##    #####   ##        **
 **           ##                                                    ##        **
 **                                                                           **
 **                                                ... make the atoms dance   **
 **                                                                           **
 **            Copyright (C) by CP2K developers group (2000-2021)             **
 **                      J. Chem. Phys. 152, 194103 (2020)                    **
 **                                                                           **
 *******************************************************************************

 DFT| Spin restricted Kohn-Sham (RKS) calculation                            RKS
 DFT| Multiplicity                                                             1
 DFT| Number of spin states                                                    1
 DFT| Charge                                                                   0
 DFT| Self-interaction correction (SIC)                                       NO
 DFT| Cutoffs: density                                              1.000000E-10
 DFT|          gradient                                             1.000000E-10
 DFT|          tau                                                  1.000000E-10
 DFT|          cutoff_smoothing_range                               0.000000E+00
 DFT| XC density smoothing                                                  NONE
 DFT| XC derivatives                                                          PW
 FUNCTIONAL| ROUTINE=NEW
 FUNCTIONAL| BECKE88:
 FUNCTIONAL| A. Becke, Phys. Rev. A 38, 3098 (1988) {LDA version}               
 FUNCTIONAL| LYP:
 FUNCTIONAL| C. Lee, W. Yang, R.G. Parr, Phys. Rev. B, 37, 785 (1988) {LDA versi
 FUNCTIONAL| on}                                                                
 FUNCTIONAL| VWN:
 FUNCTIONAL| S. H. Vosko, L. Wilk and M. Nusair, Can. J. Phys. 58, 1200 (1980) {
 FUNCTIONAL| LDA version}                                                       
 FUNCTIONAL| XALPHA:
 FUNCTIONAL| Dirac/Slater local exchange; parameter=  0.666 {LDA}               
 vdW POTENTIAL|                                                   Pair Potential
 vdW POTENTIAL|          DFT-D3 (Version 3.1)
 vdW POTENTIAL|          Potential Form: S. Grimme et al, JCP 132: 154104 (2010)
 vdW POTENTIAL|          Zero Damping
 vdW POTENTIAL|          Cutoff Radius [Bohr]:                             20.00
 vdW POTENTIAL|          s6 Scaling Factor:                               1.0000
 vdW POTENTIAL|          sr6 Scaling Factor:                              1.2610
 vdW POTENTIAL|          s8 Scaling Factor:                               1.7030
 vdW POTENTIAL|          Cutoff for CN calculation:                   0.1000E-05

 QS| Method:                                                                 GPW
 QS| Density plane wave grid type                        NON-SPHERICAL FULLSPACE
 QS| Number of grid levels:                                                    4
 QS| Density cutoff [a.u.]:                                                175.0
 QS| Multi grid cutoff [a.u.]: 1) grid level                               175.0
 QS|                           2) grid level                                58.3
 QS|                           3) grid level                                19.4
 QS|                           4) grid level                                 6.5
 QS| Grid level progression factor:                                          3.0
 QS| Relative density cutoff [a.u.]:                                        25.0
 QS| Interaction thresholds: eps_pgf_orb:                                1.0E-05
 QS|                         eps_filter_matrix:                          0.0E+00
 QS|                         eps_core_charge:                            1.0E-12
 QS|                         eps_rho_gspace:                             1.0E-10
 QS|                         eps_rho_rspace:                             1.0E-10
 QS|                         eps_gvg_rspace:                             1.0E-05
 QS|                         eps_ppl:                                    1.0E-02
 QS|                         eps_ppnl:                                   1.0E-07


 ATOMIC KIND INFORMATION

  1. Atomic kind: Si                                    Number of atoms:      32

     Orbital Basis Set                                     DZVP-MOLOPT-SR-GTH-q4

       Number of orbital shell sets:                                           1
       Number of orbital shells:                                               5
       Number of primitive Cartesian functions:                                4
       Number of Cartesian basis functions:                                   14
       Number of spherical basis functions:                                   13
       Norm type:                                                              2

       Normalised Cartesian orbitals:

                        Set   Shell   Orbital            Exponent    Coefficient

                          1       1    2s                1.256768       0.294045
                                                         0.506394      -0.015884
                                                         0.238884      -0.207657
                                                         0.087337      -0.036225

                          1       2    3s                1.256768      -1.532347
                                                         0.506394       0.524539
                                                         0.238884       0.025013
                                                         0.087337      -0.052203

                          1       3    3px               1.256768       0.152274
                                                         0.506394      -0.154145
                                                         0.238884      -0.115581
                                                         0.087337      -0.028372
                          1       3    3py               1.256768       0.152274
                                                         0.506394      -0.154145
                                                         0.238884      -0.115581
                                                         0.087337      -0.028372
                          1       3    3pz               1.256768       0.152274
                                                         0.506394      -0.154145
                                                         0.238884      -0.115581
                                                         0.087337      -0.028372

                          1       4    4px               1.256768       0.313378
                                                         0.506394      -0.415360
                                                         0.238884      -0.022539
                                                         0.087337       0.078473
                          1       4    4py               1.256768       0.313378
                                                         0.506394      -0.415360
                                                         0.238884      -0.022539
                                                         0.087337       0.078473
                          1       4    4pz               1.256768       0.313378
                                                         0.506394      -0.415360
                                                         0.238884      -0.022539
                                                         0.087337       0.078473

                          1       5    4dx2              1.256768       0.325879
                                                         0.506394       0.163831
                                                         0.238884       0.044076
                                                         0.087337       0.010608
                          1       5    4dxy              1.256768       0.564439
                                                         0.506394       0.283764
                                                         0.238884       0.076342
                                                         0.087337       0.018373
                          1       5    4dxz              1.256768       0.564439
                                                         0.506394       0.283764
                                                         0.238884       0.076342
                                                         0.087337       0.018373
                          1       5    4dy2              1.256768       0.325879
                                                         0.506394       0.163831
                                                         0.238884       0.044076
                                                         0.087337       0.010608
                          1       5    4dyz              1.256768       0.564439
                                                         0.506394       0.283764
                                                         0.238884       0.076342
                                                         0.087337       0.018373
                          1       5    4dz2              1.256768       0.325879
                                                         0.506394       0.163831
                                                         0.238884       0.044076
                                                         0.087337       0.010608

     Auxiliary Fit Basis Set                                               cFIT3

       Number of orbital shell sets:                                           4
       Number of orbital shells:                                               4
       Number of primitive Cartesian functions:                                6
       Number of Cartesian basis functions:                                    8
       Number of spherical basis functions:                                    8
       Norm type:                                                              2

       Normalised Cartesian orbitals:

                        Set   Shell   Orbital            Exponent    Coefficient

                          1       1    1s                0.096480       0.123378

                          2       1    1s                0.246960      -0.309315
                                                         1.277560       0.429908

                          3       1    1px               0.089490       0.069768
                          3       1    1py               0.089490       0.069768
                          3       1    1pz               0.089490       0.069768

                          4       1    1px               0.295630       0.313983
                                                         2.202470      -0.124968
                          4       1    1py               0.295630       0.313983
                                                         2.202470      -0.124968
                          4       1    1pz               0.295630       0.313983
                                                         2.202470      -0.124968

       Atomic covalent radius [Angstrom]:                                  1.110

       Atomic van der Waals radius [Angstrom]:                             2.100

     GTH Potential information for                                       GTH-PBE

       Description:                       Goedecker-Teter-Hutter pseudopotential
                                           Goedecker et al., PRB 54, 1703 (1996)
                                          Hartwigsen et al., PRB 58, 3641 (1998)
                                                      Krack, TCA 114, 145 (2005)

       Gaussian exponent of the core charge distribution:               2.582645
       Electronic configuration (s p d ...):                               2   2

       Parameters of the local part of the GTH pseudopotential:

                          rloc        C1          C2          C3          C4
                        0.440000   -6.269288

       Parameters of the non-local part of the GTH pseudopotential:

                   l      r(l)      h(i,j,l)

                   0    0.435634    8.951742   -2.706271
                                   -2.706271    3.493781
                   1    0.497942    2.431277

  2. Atomic kind: H                                     Number of atoms:      64

     Orbital Basis Set                                     DZVP-MOLOPT-SR-GTH-q1

       Number of orbital shell sets:                                           1
       Number of orbital shells:                                               3
       Number of primitive Cartesian functions:                                5
       Number of Cartesian basis functions:                                    5
       Number of spherical basis functions:                                    5
       Norm type:                                                              2

       Normalised Cartesian orbitals:

                        Set   Shell   Orbital            Exponent    Coefficient

                          1       1    2s               10.068468      -0.133023
                                                         2.680223      -0.177618
                                                         0.791502      -0.258419
                                                         0.239116      -0.107525
                                                         0.082193      -0.014019

                          1       2    3s               10.068468       0.344673
                                                         2.680223       1.819821
                                                         0.791502      -0.999069
                                                         0.239116       0.017430
                                                         0.082193       0.082660

                          1       3    3px              10.068468       0.155326
                                                         2.680223       0.367157
                                                         0.791502       0.311480
                                                         0.239116       0.080105
                                                         0.082193       0.033440
                          1       3    3py              10.068468       0.155326
                                                         2.680223       0.367157
                                                         0.791502       0.311480
                                                         0.239116       0.080105
                                                         0.082193       0.033440
                          1       3    3pz              10.068468       0.155326
                                                         2.680223       0.367157
                                                         0.791502       0.311480
                                                         0.239116       0.080105
                                                         0.082193       0.033440

     Auxiliary Fit Basis Set                                               cFIT3

       Number of orbital shell sets:                                           2
       Number of orbital shells:                                               2
       Number of primitive Cartesian functions:                                3
       Number of Cartesian basis functions:                                    2
       Number of spherical basis functions:                                    2
       Norm type:                                                              2

       Normalised Cartesian orbitals:

                        Set   Shell   Orbital            Exponent    Coefficient

                          1       1    1s                0.113290       0.139173

                          2       1    1s                0.551250       0.404894
                                                         3.585030       0.334062

       Atomic covalent radius [Angstrom]:                                  0.320

       Atomic van der Waals radius [Angstrom]:                             1.090

     GTH Potential information for                                       GTH-PBE

       Description:                       Goedecker-Teter-Hutter pseudopotential
                                           Goedecker et al., PRB 54, 1703 (1996)
                                          Hartwigsen et al., PRB 58, 3641 (1998)
                                                      Krack, TCA 114, 145 (2005)

       Gaussian exponent of the core charge distribution:              12.500000
       Electronic configuration (s p d ...):                                   1

       Parameters of the local part of the GTH pseudopotential:

                          rloc        C1          C2          C3          C4
                        0.200000   -4.178900    0.724463

  3. Atomic kind: Ge                                    Number of atoms:      32

     Orbital Basis Set                                     DZVP-MOLOPT-SR-GTH-q4

       Number of orbital shell sets:                                           1
       Number of orbital shells:                                               5
       Number of primitive Cartesian functions:                                4
       Number of Cartesian basis functions:                                   14
       Number of spherical basis functions:                                   13
       Norm type:                                                              2

       Normalised Cartesian orbitals:

                        Set   Shell   Orbital            Exponent    Coefficient

                          1       1    2s                3.751626      -0.120003
                                                         1.419172       0.428185
                                                         0.322428      -0.228255
                                                         0.110740      -0.068975

                          1       2    3s                3.751626       0.273885
                                                         1.419172      -0.836040
                                                         0.322428       0.584240
                                                         0.110740      -0.261045

                          1       3    3px               3.751626       0.064521
                                                         1.419172       0.216179
                                                         0.322428      -0.253385
                                                         0.110740      -0.035002
                          1       3    3py               3.751626       0.064521
                                                         1.419172       0.216179
                                                         0.322428      -0.253385
                                                         0.110740      -0.035002
                          1       3    3pz               3.751626       0.064521
                                                         1.419172       0.216179
                                                         0.322428      -0.253385
                                                         0.110740      -0.035002

                          1       4    4px               3.751626      -0.201632
                                                         1.419172      -0.391570
                                                         0.322428       0.486065
                                                         0.110740      -0.127990
                          1       4    4py               3.751626      -0.201632
                                                         1.419172      -0.391570
                                                         0.322428       0.486065
                                                         0.110740      -0.127990
                          1       4    4pz               3.751626      -0.201632
                                                         1.419172      -0.391570
                                                         0.322428       0.486065
                                                         0.110740      -0.127990

                          1       5    4dx2              3.751626      -0.158822
                                                         1.419172       0.193543
                                                         0.322428       0.178643
                                                         0.110740       0.009408
                          1       5    4dxy              3.751626      -0.275088
                                                         1.419172       0.335227
                                                         0.322428       0.309418
                                                         0.110740       0.016296
                          1       5    4dxz              3.751626      -0.275088
                                                         1.419172       0.335227
                                                         0.322428       0.309418
                                                         0.110740       0.016296
                          1       5    4dy2              3.751626      -0.158822
                                                         1.419172       0.193543
                                                         0.322428       0.178643
                                                         0.110740       0.009408
                          1       5    4dyz              3.751626      -0.275088
                                                         1.419172       0.335227
                                                         0.322428       0.309418
                                                         0.110740       0.016296
                          1       5    4dz2              3.751626      -0.158822
                                                         1.419172       0.193543
                                                         0.322428       0.178643
                                                         0.110740       0.009408

     Auxiliary Fit Basis Set                                               cFIT6

       Number of orbital shell sets:                                           4
       Number of orbital shells:                                               4
       Number of primitive Cartesian functions:                                6
       Number of Cartesian basis functions:                                    8
       Number of spherical basis functions:                                    8
       Norm type:                                                              2

       Normalised Cartesian orbitals:

                        Set   Shell   Orbital            Exponent    Coefficient

                          1       1    1s                0.110750       0.136826

                          2       1    1s                0.308366      -0.415436
                                                         1.178430       0.610195

                          3       1    1px               0.110745       0.091064
                          3       1    1py               0.110745       0.091064
                          3       1    1pz               0.110745       0.091064

                          4       1    1px               0.339941       0.397306
                                                         1.591237      -0.423312
                          4       1    1py               0.339941       0.397306
                                                         1.591237      -0.423312
                          4       1    1pz               0.339941       0.397306
                                                         1.591237      -0.423312

       Atomic covalent radius [Angstrom]:                                  1.220

       Atomic van der Waals radius [Angstrom]:                             2.110

     GTH Potential information for                                       GTH-PBE

       Description:                       Goedecker-Teter-Hutter pseudopotential
                                           Goedecker et al., PRB 54, 1703 (1996)
                                          Hartwigsen et al., PRB 58, 3641 (1998)
                                                      Krack, TCA 114, 145 (2005)

       Gaussian exponent of the core charge distribution:               1.714678
       Electronic configuration (s p d ...):                               2   2

       Parameters of the local part of the GTH pseudopotential:

                          rloc        C1          C2          C3          C4
                        0.540000

       Parameters of the non-local part of the GTH pseudopotential:

                   l      r(l)      h(i,j,l)

                   0    0.421865    7.510241   -0.588108   -1.447976
                                   -0.588108   -1.595888    3.738657
                                   -1.447976    3.738657   -2.967467
                   1    0.567529    0.913860    0.546875
                                    0.546875   -0.647072
                   2    0.813914    0.197177


 MOLECULE KIND INFORMATION


 All atoms are their own molecule, skipping detailed information


 TOTAL NUMBERS AND MAXIMUM NUMBERS

  Total number of            - Atomic kinds:                                   3
                             - Atoms:                                        128
                             - Shell sets:                                   128
                             - Shells:                                       512
                             - Primitive Cartesian functions:                576
                             - Cartesian basis functions:                   1216
                             - Spherical basis functions:                   1152

  Maximum angular momentum of- Orbital basis functions:                        2
                             - Local part of the GTH pseudopotential:          2
                             - Non-local part of the GTH pseudopotential:      4

  AUX_FIT ADMM-Basis: 
  Total number of            - Shell sets:                                   384
                             - Shells:                                       384
                             - Primitive Cartesian functions:                576
                             - Cartesian basis functions:                    640
                             - Spherical basis functions:                    640
                               Maximum angular momentum                        1


 MODULE QUICKSTEP:  ATOMIC COORDINATES IN angstrom

 Atom  Kind  Element       X           Y           Z          Z(eff)       Mass
    1   1 Si  14       0.279544    2.355381    1.879111       4.0000     28.0855
    2   1 Si  14       2.213879    1.114863    2.346573       4.0000     28.0855
    3   1 Si  14       4.048883    2.243519    1.523291       4.0000     28.0855
    4   1 Si  14       6.009052    1.162173    2.338096       4.0000     28.0855
    5   1 Si  14      -1.879686    5.698008    1.871530       4.0000     28.0855
    6   1 Si  14       0.089522    4.533179    2.650259       4.0000     28.0855
    7   1 Si  14       1.971503    5.809171    1.827627       4.0000     28.0855
    8   1 Si  14       4.104514    4.589387    2.321147       4.0000     28.0855
    9   2 H    1       0.609648    2.400017    0.461127       1.0000      1.0079
   10   2 H    1       2.268656    0.868003    3.811820       1.0000      1.0079
   11   2 H    1       1.790317    3.542938    5.258662       1.0000      1.0079
   12   2 H    1       3.687507    2.269299    8.949785       1.0000      1.0079
   13   2 H    1       4.016040    2.305102    0.076551       1.0000      1.0079
   14   2 H    1       5.826579    0.944845    3.819648       1.0000      1.0079
   15   2 H    1      -1.720766    3.523302    5.059081       1.0000      1.0079
   16   2 H    1      -0.260549    2.890239    9.321881       1.0000      1.0079
   17   2 H    1      -1.642483    5.639937    0.438482       1.0000      1.0079
   18   2 H    1       0.088557    4.450506    4.137518       1.0000      1.0079
   19   2 H    1       3.975253    0.007053    5.164243       1.0000      1.0079
   20   2 H    1       1.772569    5.995994    9.093130       1.0000      1.0079
   21   2 H    1       1.683282    5.869062    0.339385       1.0000      1.0079
   22   2 H    1       4.281871    4.328646    3.843994       1.0000      1.0079
   23   2 H    1       0.151613    0.247937    5.572262       1.0000      1.0079
   24   2 H    1      -2.263758    6.016821    8.781156       1.0000      1.0079
   25   3 Ge  32       1.875624    3.657060    6.846630       4.0000     72.6400
   26   3 Ge  32       3.877404    2.380529    7.402081       4.0000     72.6400
   27   3 Ge  32      -1.940357    3.416480    6.541470       4.0000     72.6400
   28   3 Ge  32      -0.100230    2.616382    7.797700       4.0000     72.6400
   29   3 Ge  32       3.953092    0.060076    6.656519       4.0000     72.6400
   30   3 Ge  32       1.772089    5.980528    7.565627       4.0000     72.6400
   31   3 Ge  32       0.049401    0.262281    7.145182       4.0000     72.6400
   32   3 Ge  32      -2.207049    5.779971    7.242795       4.0000     72.6400
   33   1 Si  14       8.034448    2.272984    1.780122       4.0000     28.0855
   34   1 Si  14      10.073303    1.110005    2.291399       4.0000     28.0855
   35   1 Si  14      12.171600    2.284007    1.796566       4.0000     28.0855
   36   1 Si  14      14.242545    1.210199    2.414458       4.0000     28.0855
   37   1 Si  14       6.170491    5.740757    1.674720       4.0000     28.0855
   38   1 Si  14       8.181220    4.623628    2.472006       4.0000     28.0855
   39   1 Si  14      10.031604    5.741311    1.629071       4.0000     28.0855
   40   1 Si  14      11.984839    4.544755    2.263851       4.0000     28.0855
   41   2 H    1       7.967150    2.554771    0.337804       1.0000      1.0079
   42   2 H    1       9.992279    0.972816    3.768662       1.0000      1.0079
   43   2 H    1       9.546888    3.272976    5.114243       1.0000      1.0079
   44   2 H    1      12.054858    2.045401    8.807863       1.0000      1.0079
   45   2 H    1      12.104868    2.293028    0.338917       1.0000      1.0079
   46   2 H    1      14.189028    0.846906    3.834021       1.0000      1.0079
   47   2 H    1       6.222085    3.491442    5.280405       1.0000      1.0079
   48   2 H    1       7.884898    2.293457    9.122898       1.0000      1.0079
   49   2 H    1       6.379703    5.689069    0.194024       1.0000      1.0079
   50   2 H    1       8.064246    4.709730    4.011095       1.0000      1.0079
   51   2 H    1      12.386515   -0.815821    5.361570       1.0000      1.0079
   52   2 H    1      10.140387    5.776633    8.721192       1.0000      1.0079
   53   2 H    1       9.904160    5.533071    0.110998       1.0000      1.0079
   54   2 H    1      12.030345    4.668328    3.779705       1.0000      1.0079
   55   2 H    1       7.944532    0.221122    5.226662       1.0000      1.0079
   56   2 H    1       5.910369    5.916975    9.025650       1.0000      1.0079
   57   3 Ge  32       9.981657    3.234094    6.611644       4.0000     72.6400
   58   3 Ge  32      12.110921    2.095952    7.214665       4.0000     72.6400
   59   3 Ge  32       6.066922    3.260278    6.738735       4.0000     72.6400
   60   3 Ge  32       8.060273    2.253619    7.618824       4.0000     72.6400
   61   3 Ge  32      12.195809   -0.348154    6.820853       4.0000     72.6400
   62   3 Ge  32       9.744501    5.625527    7.274029       4.0000     72.6400
   63   3 Ge  32       7.931538   -0.003184    6.687385       4.0000     72.6400
   64   3 Ge  32       5.870268    5.676083    7.492622       4.0000     72.6400
   65   1 Si  14      -3.830087    9.154348    1.487239       4.0000     28.0855
   66   1 Si  14      -1.797082    8.092870    2.298889       4.0000     28.0855
   67   1 Si  14       0.197104    9.196616    1.541734       4.0000     28.0855
   68   1 Si  14       2.237076    8.263901    2.123643       4.0000     28.0855
   69   1 Si  14      -5.848188   12.659980    1.435498       4.0000     28.0855
   70   1 Si  14      -3.936224   11.436469    2.102048       4.0000     28.0855
   71   1 Si  14      -1.811599   12.726722    1.525401       4.0000     28.0855
   72   1 Si  14       0.168381   11.564409    2.237177       4.0000     28.0855
   73   2 H    1      -4.098794    8.833153    0.038590       1.0000      1.0079
   74   2 H    1      -2.030311    8.139500    3.795905       1.0000      1.0079
   75   2 H    1      -1.661704   10.472159    5.113921       1.0000      1.0079
   76   2 H    1      -0.400484    8.939633    9.157372       1.0000      1.0079
   77   2 H    1      -0.088449    9.312938    0.074253       1.0000      1.0079
   78   2 H    1       2.082748    8.318477    3.595397       1.0000      1.0079
   79   2 H    1      -6.698239   10.615966    5.450618       1.0000      1.0079
   80   2 H    1      -3.892794    8.815294    8.741726       1.0000      1.0079
   81   2 H    1      -5.809135   12.902194   -0.137937       1.0000      1.0079
   82   2 H    1      -4.028818   11.148214    3.593250       1.0000      1.0079
   83   2 H    1      -0.039807    7.552837    5.003282       1.0000      1.0079
   84   2 H    1      -2.126597   12.680589    8.868014       1.0000      1.0079
   85   2 H    1      -1.990782   12.660994   -0.002019       1.0000      1.0079
   86   2 H    1       0.178962   11.681589    3.789149       1.0000      1.0079
   87   2 H    1      -4.115159    6.616177    4.791837       1.0000      1.0079
   88   2 H    1      -5.465381   12.768419    9.184141       1.0000      1.0079
   89   3 Ge  32      -2.058643   10.310259    6.587639       4.0000     72.6400
   90   3 Ge  32      -0.251290    9.103948    7.574469       4.0000     72.6400
   91   3 Ge  32      -6.208811   10.224210    6.935762       4.0000     72.6400
   92   3 Ge  32      -4.080098    9.044617    7.190188       4.0000     72.6400
   93   3 Ge  32      -0.259844    6.994292    6.456529       4.0000     72.6400
   94   3 Ge  32      -2.040878   12.689842    7.362526       4.0000     72.6400
   95   3 Ge  32      -4.191955    6.812315    6.314977       4.0000     72.6400
   96   3 Ge  32      -5.926900   12.732372    7.709114       4.0000     72.6400
   97   1 Si  14       4.187346    9.253674    1.301065       4.0000     28.0855
   98   1 Si  14       6.050833    8.038361    2.183208       4.0000     28.0855
   99   1 Si  14       8.107715    9.051987    1.480544       4.0000     28.0855
  100   1 Si  14      10.130174    8.078765    2.253036       4.0000     28.0855
  101   1 Si  14       2.081608   12.639176    1.415566       4.0000     28.0855
  102   1 Si  14       4.201942   11.530539    1.994018       4.0000     28.0855
  103   1 Si  14       6.223692   12.655475    1.403899       4.0000     28.0855
  104   1 Si  14       8.117513   11.321677    1.970735       4.0000     28.0855
  105   2 H    1       4.040370    9.232904   -0.186246       1.0000      1.0079
  106   2 H    1       5.860591    8.281164    3.646168       1.0000      1.0079
  107   2 H    1       6.282342   10.235494    5.797625       1.0000      1.0079
  108   2 H    1       7.997685    9.077485    9.736272       1.0000      1.0079
  109   2 H    1       8.027666    8.839381   -0.031203       1.0000      1.0079
  110   2 H    1      10.164914    8.116217    3.735097       1.0000      1.0079
  111   2 H    1       1.864773   10.148183    5.319408       1.0000      1.0079
  112   2 H    1       3.604306    8.978240    9.184310       1.0000      1.0079
  113   2 H    1       1.935780   12.786856   -0.052970       1.0000      1.0079
  114   2 H    1       4.357155   11.332767    3.452424       1.0000      1.0079
  115   2 H    1       8.160088    7.524565    5.530288       1.0000      1.0079
  116   2 H    1       6.247530   12.836321    9.575059       1.0000      1.0079
  117   2 H    1       6.444349   12.968857   -0.038601       1.0000      1.0079
  118   2 H    1       8.066692   11.244841    3.464603       1.0000      1.0079
  119   2 H    1       3.987883    6.779537    5.367072       1.0000      1.0079
  120   2 H    1       2.161873   12.734123    9.016582       1.0000      1.0079
  121   3 Ge  32       6.018016   10.347780    7.394897       4.0000     72.6400
  122   3 Ge  32       7.900890    8.998905    8.223015       4.0000     72.6400
  123   3 Ge  32       1.784975   10.176774    6.919998       4.0000     72.6400
  124   3 Ge  32       3.863991    9.089863    7.714938       4.0000     72.6400
  125   3 Ge  32       7.778347    6.922413    6.831503       4.0000     72.6400
  126   3 Ge  32       6.233530   12.641254    8.012294       4.0000     72.6400
  127   3 Ge  32       3.868384    6.879564    6.860206       4.0000     72.6400
  128   3 Ge  32       2.062334   12.603152    7.489385       4.0000     72.6400




 SCF PARAMETERS         Density guess:                                   RESTART
                        --------------------------------------------------------
                        max_scf:                                              50
                        max_scf_history:                                       0
                        max_diis:                                              4
                        --------------------------------------------------------
                        eps_scf:                                        1.00E-06
                        eps_scf_history:                                0.00E+00
                        eps_diis:                                       1.00E-01
                        eps_eigval:                                     1.00E-05
                        --------------------------------------------------------
                        level_shift [a.u.]:                                 0.00
                        added MOs                                        50    0
                        --------------------------------------------------------
                        Mixing method:                            BROYDEN_MIXING
                                                charge density mixing in g-space
                        --------------------------------------------------------
                        No outer SCF

 PW_GRID| Information for grid number                                          1
 PW_GRID| Grid distributed over                                    40 processors
 PW_GRID| Real space group dimensions                                    40    1
 PW_GRID| the grid is blocked:                                                NO
 PW_GRID| Cutoff [a.u.]                                                    175.0
 PW_GRID| spherical cutoff:                                                   NO
 PW_GRID|   Bounds   1            -90      89                Points:         180
 PW_GRID|   Bounds   2            -90      89                Points:         180
 PW_GRID|   Bounds   3           -180     179                Points:         360
 PW_GRID| Volume element (a.u.^3)  0.3784E-02     Volume (a.u.^3)     44134.1676
 PW_GRID| Grid span                                                    FULLSPACE
 PW_GRID|   Distribution                         Average         Max         Min
 PW_GRID|   G-Vectors                           291600.0      291600      291600
 PW_GRID|   G-Rays                                1620.0        1620        1620
 PW_GRID|   Real Space Points                   291600.0      324000      259200

 PW_GRID| Information for grid number                                          2
 PW_GRID| Number of the reference grid                                         1
 PW_GRID| Grid distributed over                                    40 processors
 PW_GRID| Real space group dimensions                                    40    1
 PW_GRID| the grid is blocked:                                                NO
 PW_GRID| Cutoff [a.u.]                                                     58.3
 PW_GRID| spherical cutoff:                                                   NO
 PW_GRID|   Bounds   1            -54      53                Points:         108
 PW_GRID|   Bounds   2            -54      53                Points:         108
 PW_GRID|   Bounds   3           -100      99                Points:         200
 PW_GRID| Volume element (a.u.^3)  0.1892E-01     Volume (a.u.^3)     44134.1676
 PW_GRID| Grid span                                                    FULLSPACE
 PW_GRID|   Distribution                         Average         Max         Min
 PW_GRID|   G-Vectors                            58320.0       59724       57024
 PW_GRID|   G-Rays                                 540.0         553         528
 PW_GRID|   Real Space Points                    58320.0       64800       43200

 PW_GRID| Information for grid number                                          3
 PW_GRID| Number of the reference grid                                         1
 PW_GRID| Grid distributed over                                    40 processors
 PW_GRID| Real space group dimensions                                    40    1
 PW_GRID| the grid is blocked:                                                NO
 PW_GRID| Cutoff [a.u.]                                                     19.4
 PW_GRID| spherical cutoff:                                                   NO
 PW_GRID|   Bounds   1            -30      29                Points:          60
 PW_GRID|   Bounds   2            -30      29                Points:          60
 PW_GRID|   Bounds   3            -60      59                Points:         120
 PW_GRID| Volume element (a.u.^3)  0.1022         Volume (a.u.^3)     44134.1676
 PW_GRID| Grid span                                                    FULLSPACE
 PW_GRID|   Distribution                         Average         Max         Min
 PW_GRID|   G-Vectors                            10800.0       11040       10380
 PW_GRID|   G-Rays                                 180.0         184         173
 PW_GRID|   Real Space Points                    10800.0       14400        7200

 PW_GRID| Information for grid number                                          4
 PW_GRID| Number of the reference grid                                         1
 PW_GRID| Grid distributed over                                    40 processors
 PW_GRID| Real space group dimensions                                     5    8
 PW_GRID| the grid is blocked:                                                NO
 PW_GRID| Cutoff [a.u.]                                                      6.5
 PW_GRID| spherical cutoff:                                                   NO
 PW_GRID|   Bounds   1            -18      17                Points:          36
 PW_GRID|   Bounds   2            -18      17                Points:          36
 PW_GRID|   Bounds   3            -36      35                Points:          72
 PW_GRID| Volume element (a.u.^3)  0.4730         Volume (a.u.^3)     44134.1676
 PW_GRID| Grid span                                                    FULLSPACE
 PW_GRID|   Distribution                         Average         Max         Min
 PW_GRID|   G-Vectors                             2332.8        2520        2160
 PW_GRID|   G-Rays                                  64.8          70          60
 PW_GRID|   Real Space Points                     2332.8        2880        2016

 POISSON| Solver                                                        PERIODIC
 POISSON| Periodicity                                                        XYZ

 RS_GRID| Information for grid number                                          1
 RS_GRID|   Bounds   1            -90      89                Points:         180
 RS_GRID|   Bounds   2            -90      89                Points:         180
 RS_GRID|   Bounds   3           -180     179                Points:         360
 RS_GRID| Real space distribution over                                  4 groups
 RS_GRID| Real space distribution along direction                              2
 RS_GRID| Border size                                                         38
 RS_GRID| Real space distribution over                                 10 groups
 RS_GRID| Real space distribution along direction                              3
 RS_GRID| Border size                                                         38
 RS_GRID|   Distribution                         Average         Max         Min
 RS_GRID|   Planes                                 121.0         121         121
 RS_GRID|   Distribution                         Average         Max         Min
 RS_GRID|   Planes                                 112.0         112         112

 RS_GRID| Information for grid number                                          2
 RS_GRID|   Bounds   1            -54      53                Points:         108
 RS_GRID|   Bounds   2            -54      53                Points:         108
 RS_GRID|   Bounds   3           -100      99                Points:         200
 RS_GRID| Real space distribution over                                  4 groups
 RS_GRID| Real space distribution along direction                              2
 RS_GRID| Border size                                                         38
 RS_GRID| Real space distribution over                                 10 groups
 RS_GRID| Real space distribution along direction                              3
 RS_GRID| Border size                                                         38
 RS_GRID|   Distribution                         Average         Max         Min
 RS_GRID|   Planes                                 103.0         103         103
 RS_GRID|   Distribution                         Average         Max         Min
 RS_GRID|   Planes                                  96.0          96          96

 RS_GRID| Information for grid number                                          3
 RS_GRID|   Bounds   1            -30      29                Points:          60
 RS_GRID|   Bounds   2            -30      29                Points:          60
 RS_GRID|   Bounds   3            -60      59                Points:         120
 RS_GRID| Real space fully replicated
 RS_GRID| Group size                                                           1

 RS_GRID| Information for grid number                                          4
 RS_GRID|   Bounds   1            -18      17                Points:          36
 RS_GRID|   Bounds   2            -18      17                Points:          36
 RS_GRID|   Bounds   3            -36      35                Points:          72
 RS_GRID| Real space fully replicated
 RS_GRID| Group size                                                           1

  HFX_INFO| Replica ID:                                                        1
  HFX_INFO| FRACTION:                                               0.2000000000
  HFX_INFO| Interaction Potential:                                     TRUNCATED
  HFX_INFO| Cutoff Radius [angstrom]:                               6.0000000000
  HFX_INFO| EPS_SCHWARZ:                                                 1.0E-08
  HFX_INFO| EPS_SCHWARZ_FORCES                                           1.0E-06
  HFX_INFO| EPS_STORAGE_SCALING:                                         1.0E-01
  HFX_INFO| NBINS:                                                            64
  HFX_INFO| BLOCK_SIZE:                                                        2
  HFX_INFO| NUMBER_OF_SHELLS:                                               AUTO
  HFX_INFO| Number of periodic shells considered:                             -1
  HFX_INFO| Number of periodic cells considered:                              27


 Number of electrons:                                                        320
 Number of occupied orbitals:                                                160
 Number of molecular orbitals:                                               210

 Number of orbital functions:                                               1152
 Number of independent orbital functions:                                   1152

 Extrapolation method: initial_guess

 *** WARNING in qs_initial_guess.F:309 :: User requested to restart the    ***
 *** wavefunction from the file named: Diag_libra-2004-RESTART.wfn. This   ***
 *** file does not exist. Please check the existence of the file or change ***
 *** properly the value of the keyword WFN_RESTART_FILE_NAME. Calculation  ***
 *** continues using ATOMIC GUESS.                                         ***


 Atomic guess: The first density matrix is obtained in terms of atomic orbitals
               and electronic configurations assigned to each atomic kind

 Guess for atomic kind: Si

 Electronic structure
    Total number of core electrons                                         10.00
    Total number of valence electrons                                       4.00
    Total number of electrons                                              14.00
    Multiplicity                                                   not specified
    S   [  2.00  2.00] 2.00
    P   [  6.00] 2.00


 *******************************************************************************
                  Iteration          Convergence                     Energy [au]
 *******************************************************************************
                          1        0.526541E-01                  -3.659692963728
                          2        0.125823E-01                  -3.661785675622
                          3        0.408986E-04                  -3.661911567360
                          4        0.675570E-07                  -3.661911568709

 Energy components [Hartree]           Total Energy ::           -3.661911568709
                                        Band Energy ::           -0.941881516273
                                     Kinetic Energy ::            1.409736465412
                                   Potential Energy ::           -5.071648034121
                                      Virial (-V/T) ::            3.597585902439
                                        Core Energy ::           -5.690149137281
                                          XC Energy ::           -0.992569238249
                                     Coulomb Energy ::            3.020806806821
                       Total Pseudopotential Energy ::           -7.143143335066
                       Local Pseudopotential Energy ::           -8.006124475851
                    Nonlocal Pseudopotential Energy ::            0.862981140786
                                        Confinement ::            0.432577323720

 Orbital energies  State     L     Occupation   Energy[a.u.]          Energy[eV]

                       1     0          2.000      -0.357276           -9.721984

                       1     1          2.000      -0.113664           -3.092965


 Total Electron Density at R=0:                                         0.000026

 Guess for atomic kind: H

 Electronic structure
    Total number of core electrons                                          0.00
    Total number of valence electrons                                       1.00
    Total number of electrons                                               1.00
    Multiplicity                                                   not specified
    S      1.00


 *******************************************************************************
                  Iteration          Convergence                     Energy [au]
 *******************************************************************************
                          1        0.250972E-02                  -0.375256815885
                          2        0.570752E-04                  -0.375258666164
                          3        0.832405E-09                  -0.375258667122

 Energy components [Hartree]           Total Energy ::           -0.375258667122
                                        Band Energy ::           -0.076317618391
                                     Kinetic Energy ::            0.771356566341
                                   Potential Energy ::           -1.146615233463
                                      Virial (-V/T) ::            1.486491829455
                                        Core Energy ::           -0.456090715790
                                          XC Energy ::           -0.314218627334
                                     Coulomb Energy ::            0.395050676003
                       Total Pseudopotential Energy ::           -1.238482237174
                       Local Pseudopotential Energy ::           -1.238482237174
                    Nonlocal Pseudopotential Energy ::            0.000000000000
                                        Confinement ::            0.110349550431

 Orbital energies  State     L     Occupation   Energy[a.u.]          Energy[eV]

                       1     0          1.000      -0.076318           -2.076708


 Total Electron Density at R=0:                                         0.425022

 Guess for atomic kind: Ge

 Electronic structure
    Total number of core electrons                                         28.00
    Total number of valence electrons                                       4.00
    Total number of electrons                                              32.00
    Multiplicity                                                   not specified
    S   [  2.00  2.00  2.00] 2.00
    P   [  6.00  6.00] 2.00
    D   [ 10.00]


 *******************************************************************************
                  Iteration          Convergence                     Energy [au]
 *******************************************************************************
                          1        0.142224                      -3.669910672039
                          2        0.333188E-01                  -3.687823698339
                          3        0.522642E-04                  -3.688875018994
                          4        0.333285E-05                  -3.688875020047
                          5        0.154106E-05                  -3.688875020053
                          6        0.996835E-06                  -3.688875020055

 Energy components [Hartree]           Total Energy ::           -3.688875020055
                                        Band Energy ::           -0.991816616960
                                     Kinetic Energy ::            1.446010121603
                                   Potential Energy ::           -5.134885141658
                                      Virial (-V/T) ::            3.551071368687
                                        Core Energy ::           -5.696847161393
                                          XC Energy ::           -0.988567154744
                                     Coulomb Energy ::            2.996539296082
                       Total Pseudopotential Energy ::           -7.185566698510
                       Local Pseudopotential Energy ::           -7.622158091196
                    Nonlocal Pseudopotential Energy ::            0.436591392686
                                        Confinement ::            0.427094155139

 Orbital energies  State     L     Occupation   Energy[a.u.]          Energy[eV]

                       1     0          2.000      -0.391724          -10.659354

                       1     1          2.000      -0.104184           -2.834997


 Total Electron Density at R=0:                                         0.000078
 Re-scaling the density matrix to get the right number of electrons
                  # Electrons              Trace(P)               Scaling factor
                          320               320.000                        1.000


 SCF WAVEFUNCTION OPTIMIZATION

  Step     Update method      Time    Convergence         Total energy    Change
  ------------------------------------------------------------------------------

  HFX_MEM_INFO| Est. max. program size before HFX [MiB]:                     520

 *** WARNING in hfx_energy_potential.F:591 :: The Kohn Sham matrix is not  ***
 *** 100% occupied. This may result in incorrect Hartree-Fock results. Try ***
 *** to decrease EPS_PGF_ORB and EPS_FILTER_MATRIX in the QS section. For  ***
 *** more information see FAQ: https://www.cp2k.org/faq:hfx_eps_warning    ***

  HFX_MEM_INFO| Number of cart. primitive ERI's calculated:          16113276878
  HFX_MEM_INFO| Number of sph. ERI's calculated:                      4155204925
  HFX_MEM_INFO| Number of sph. ERI's stored in-core:                  4155204554
  HFX_MEM_INFO| Number of sph. ERI's stored on disk:                           0
  HFX_MEM_INFO| Number of sph. ERI's calculated on the fly:                    0
  HFX_MEM_INFO| Total memory consumption ERI's RAM [MiB]:                   6527
  HFX_MEM_INFO| Whereof max-vals [MiB]:                                      277
  HFX_MEM_INFO| Total compression factor ERI's RAM:                         4.86
  HFX_MEM_INFO| Total memory consumption ERI's disk [MiB]:                     0
  HFX_MEM_INFO| Total compression factor ERI's disk:                        0.00
  HFX_MEM_INFO| Size of density/Fock matrix [MiB]:                             2
  HFX_MEM_INFO| Size of buffers [MiB]:                                         1
  HFX_MEM_INFO| Number of periodic image cells considered:                    27
  HFX_MEM_INFO| Est. max. program size after HFX  [MiB]:                     689

     1 NoMix/Diag. 0.30E+00   47.2     1.29577009      -266.0101523556 -2.66E+02
     2 Broy./Diag. 0.30E+00    6.5     0.69392562      -276.0239390987 -1.00E+01
     3 Broy./Diag. 0.30E+00    6.2     0.38999226      -281.7547883957 -5.73E+00
     4 Broy./Diag. 0.30E+00    6.2     0.08045327      -284.5305691716 -2.78E+00
     5 Broy./Diag. 0.30E+00    6.5     0.03629984      -286.2923428124 -1.76E+00
     6 Broy./Diag. 0.30E+00    6.3     0.01539972      -287.3879438705 -1.10E+00
     7 Broy./Diag. 0.30E+00    6.5     0.00655126      -287.7897567919 -4.02E-01
     8 Broy./Diag. 0.30E+00    6.4     0.00777699      -287.7837309382  6.03E-03
     9 Broy./Diag. 0.30E+00    6.5     0.00532750      -287.8281941281 -4.45E-02
    10 Broy./Diag. 0.30E+00    6.4     0.00788280      -287.8463938775 -1.82E-02
    11 Broy./Diag. 0.30E+00    6.4     0.00466312      -287.8444837838  1.91E-03
    12 Broy./Diag. 0.30E+00    6.7     0.00330623      -287.9154369653 -7.10E-02
    13 Broy./Diag. 0.30E+00    6.3     0.00116350      -287.9551768639 -3.97E-02
    14 Broy./Diag. 0.30E+00    6.5     0.00201542      -287.9486807650  6.50E-03
    15 Broy./Diag. 0.30E+00    6.3     0.00082066      -287.9553357292 -6.65E-03
    16 Broy./Diag. 0.30E+00    6.5     0.00133801      -287.9515319380  3.80E-03
    17 Broy./Diag. 0.30E+00    6.3     0.00064228      -287.9484867946  3.05E-03
    18 Broy./Diag. 0.30E+00    6.3     0.00039719      -287.9442619646  4.22E-03
    19 Broy./Diag. 0.30E+00    6.7     0.00042206      -287.9438038283  4.58E-04
    20 Broy./Diag. 0.30E+00    7.5     0.00012441      -287.9486400024 -4.84E-03
    21 Broy./Diag. 0.30E+00    6.5     0.00011750      -287.9505970193 -1.96E-03
    22 Broy./Diag. 0.30E+00    6.3     0.00008439      -287.9506684554 -7.14E-05
    23 Broy./Diag. 0.30E+00    6.8     0.00007152      -287.9510877501 -4.19E-04
    24 Broy./Diag. 0.30E+00    6.4     0.00008012      -287.9512493783 -1.62E-04
    25 Broy./Diag. 0.30E+00    6.7     0.00004509      -287.9520329711 -7.84E-04
    26 Broy./Diag. 0.30E+00    6.3     0.00003800      -287.9524180969 -3.85E-04
    27 Broy./Diag. 0.30E+00    6.3     0.00002467      -287.9526012864 -1.83E-04
    28 Broy./Diag. 0.30E+00    6.6     0.00001104      -287.9531369499 -5.36E-04
    29 Broy./Diag. 0.30E+00    6.3     0.00001211      -287.9534989138 -3.62E-04
    30 Broy./Diag. 0.30E+00    6.5     0.00001237      -287.9535095860 -1.07E-05
    31 Broy./Diag. 0.30E+00    6.4     0.00000993      -287.9534886860  2.09E-05
    32 Broy./Diag. 0.30E+00    6.5     0.00000323      -287.9534831421  5.54E-06
    33 Broy./Diag. 0.30E+00    6.9     0.00001262      -287.9535739248 -9.08E-05
    34 Broy./Diag. 0.30E+00    6.3     0.00000282      -287.9536053881 -3.15E-05
    35 Broy./Diag. 0.30E+00    6.6     0.00000366      -287.9535745911  3.08E-05
    36 Broy./Diag. 0.30E+00    6.3     0.00000277      -287.9535535603  2.10E-05
    37 Broy./Diag. 0.30E+00    6.6     0.00000140      -287.9535542792 -7.19E-07
    38 Broy./Diag. 0.30E+00    6.4     0.00000099      -287.9535534214  8.58E-07

  *** SCF run converged in    38 steps ***


  Electronic density on regular grids:       -319.9999999982        0.0000000018
  Core density on regular grids:              319.9999999279       -0.0000000721
  Total charge density on r-space grids:       -0.0000000703
  Total charge density g-space grids:          -0.0000000703

  Overlap energy of the core charge distribution:               0.00002267838257
  Self energy of the core charge distribution:               -685.99374549079380
  Core Hamiltonian energy:                                    163.90220549164644
  Hartree energy:                                             331.61139895871867
  Exchange-correlation energy:                                -79.85126891914935
  Hartree-Fock Exchange energy:                               -17.17559105892538
  Dispersion energy:                                           -0.44657508128882

  Total energy:                                              -287.95355342140959

   Calculate PDOS at iteration step                                  0

              ---- PDOS: start iteration on the KS states --- 

 *******************************************************************************
 **                                                                           **
 **         ######## #######   #######   ######## #######  ########           **
 **            ##    ##     ## ##     ## ##       ##   ##     ##              **
 **            ##    ##     ## ##     ## ######   #######     ##              **
 **            ##    ##     ## ##     ## ##       ##          ##              **
 **            ##    #######   #######   ##       ##          ##              **
 **                                                                           **
 *******************************************************************************
 
 -------------------------------------------------------------------------------
 -                            TDDFPT Initial Guess                             -
 -------------------------------------------------------------------------------
          State         Occupied      ->      Virtual          Excitation
          number         orbital              orbital          energy (eV)
 -------------------------------------------------------------------------------
             1              160                  161              1.85357
             2              159                  161              2.01375
             3              160                  162              2.04426
             4              160                  163              2.07152
             5              160                  164              2.13730
             6              160                  165              2.20266
             7              159                  162              2.20444
             8              159                  163              2.23170
             9              159                  164              2.29748
            10              159                  165              2.36284
            11              160                  166              2.40702
            12              160                  167              2.44560
            13              160                  168              2.54757
            14              160                  169              2.55935
            15              159                  166              2.56720
            16              160                  170              2.59965
            17              159                  167              2.60578
            18              160                  171              2.64677
            19              160                  172              2.65118
            20              159                  168              2.70775

      Number of active states:                                     158720
 -------------------------------------------------------------------------------
 
 -------------------------------------------------------------------------------
 -                      TDDFPT WAVEFUNCTION OPTIMIZATION                       -
 -------------------------------------------------------------------------------

          Step            Time         Convergence           Conv. states
 -------------------------------------------------------------------------------

    State    Exc. energy (eV)      Convergence (eV)
        1       1.6169779            -2.3659E-01
        2       1.7741933            -2.3956E-01
        3       1.8246474            -2.1961E-01
        4       1.9870223            -8.4493E-02
        5       1.9881418            -1.4916E-01
        6       2.0393959            -1.6326E-01
        7       2.1021795            -1.0226E-01
        8       2.1527795            -7.8920E-02
        9       2.2094443            -8.8041E-02
       10       2.2216765            -1.4116E-01
       11       2.2728620            -1.3415E-01
       12       2.2756627            -1.6993E-01
       13       2.3477812            -1.9979E-01
       14       2.3757790            -1.8357E-01
       15       2.4264538            -1.4075E-01
       16       2.4739845            -1.2567E-01
       17       2.4842487            -1.2153E-01
       18       2.5200181            -1.2675E-01
       19       2.5286378            -1.2254E-01
       20       2.5607135            -1.4704E-01

             1           123.3          8.8037E-03                      0

    State    Exc. energy (eV)      Convergence (eV)
        1       1.5810263            -3.5952E-02
        2       1.7357281            -3.8465E-02
        3       1.8177165            -6.9309E-03
        4       1.9786241            -8.3981E-03
        5       1.9798046            -8.3372E-03
        6       2.0272535            -1.2142E-02
        7       2.0885830            -1.3597E-02
        8       2.1442140            -8.5655E-03
        9       2.1875813            -2.1863E-02
       10       2.1915577            -3.0119E-02
       11       2.2380689            -3.4793E-02
       12       2.2547295            -2.0933E-02
       13       2.3315677            -1.6213E-02
       14       2.3582400            -1.7539E-02
       15       2.3681137            -5.8340E-02
       16       2.4326355            -4.1349E-02
       17       2.4415401            -4.2709E-02
       18       2.4751928            -4.4825E-02
       19       2.5167587            -1.1879E-02
       20       2.5270137            -3.3700E-02

             2           123.4          2.1440E-03                      0

    State    Exc. energy (eV)      Convergence (eV)
        1       1.5747811            -6.2452E-03
        2       1.7290419            -6.6862E-03
        3       1.8170792            -6.3727E-04
        4       1.9777290            -8.9515E-04
        5       1.9791675            -6.3702E-04
        6       2.0255624            -1.6910E-03
        7       2.0866290            -1.9540E-03
        8       2.1424809            -1.7331E-03
        9       2.1842183            -3.3631E-03
       10       2.1872280            -4.3298E-03
       11       2.2292246            -8.8443E-03
       12       2.2508661            -3.8634E-03
       13       2.3211804            -1.0387E-02
       14       2.3517921            -6.4479E-03
       15       2.3656422            -2.4715E-03
       16       2.3726778            -5.9958E-02
       17       2.3862237            -5.5316E-02
       18       2.4604246            -1.4768E-02
       19       2.4789077            -3.7851E-02
       20       2.5108053            -1.6208E-02

             3           124.0          2.2034E-03                      0

[...]
 flops     5 x    18 x    13             19169280       0.0%    100.0%      0.0%
 flops     8 x     2 x    18             42637824       0.0%    100.0%      0.0%
 flops     2 x     8 x    18             42922368       0.0%    100.0%      0.0%
 flops    13 x    18 x    13             49840128       0.0%    100.0%      0.0%
 flops     5 x     1 x     5             59480400       0.0%    100.0%      0.0%
 flops     5 x     5 x    18             72867600       0.0%    100.0%      0.0%
 flops     2 x     2 x    32            105879552       0.0%    100.0%      0.0%
 flops     5 x     1 x    13            154951680       0.0%    100.0%      0.0%
 flops    13 x     1 x     5            154951680       0.0%    100.0%      0.0%
 flops     8 x     8 x    18            182108160       0.0%    100.0%      0.0%
 flops     5 x    13 x    18            186900480       0.0%    100.0%      0.0%
 flops    13 x     5 x    18            186900480       0.0%    100.0%      0.0%
 flops   283 x   111 x    32            381982080       0.0%    100.0%      0.0%
 flops   286 x   111 x    32            386031360       0.0%    100.0%      0.0%
 flops   288 x   111 x    32            388730880       0.0%    100.0%      0.0%
 flops   295 x   111 x    32            398179200       0.0%    100.0%      0.0%
 flops    13 x     1 x    13            402874368       0.0%    100.0%      0.0%
 flops     8 x     2 x    32            454803456       0.0%    100.0%      0.0%
 flops     2 x     8 x    32            457838592       0.0%    100.0%      0.0%
 flops    13 x    13 x    18            493534080       0.0%    100.0%      0.0%
 flops     5 x     5 x    32            777254400       0.0%    100.0%      0.0%
 flops   283 x   113 x    32           1166593920       0.0%    100.0%      0.0%
 flops   286 x   113 x    32           1178960640       0.0%    100.0%      0.0%
 flops   288 x   113 x    32           1187205120       0.0%    100.0%      0.0%
 flops   283 x   116 x    32           1197565440       0.0%    100.0%      0.0%
 flops   286 x   116 x    32           1210260480       0.0%    100.0%      0.0%
 flops   295 x   113 x    32           1216060800       0.0%    100.0%      0.0%
 flops   283 x   118 x    32           1218213120       0.0%    100.0%      0.0%
 flops   288 x   116 x    32           1218723840       0.0%    100.0%      0.0%
 flops   286 x   118 x    32           1231127040       0.0%    100.0%      0.0%
 flops   288 x   118 x    32           1239736320       0.0%    100.0%      0.0%
 flops   295 x   116 x    32           1248345600       0.0%    100.0%      0.0%
 flops   295 x   118 x    32           1269868800       0.0%    100.0%      0.0%
 flops     8 x     8 x    32           1942487040       0.0%    100.0%      0.0%
 flops     5 x    13 x    32           1993605120       0.0%    100.0%      0.0%
 flops    13 x     5 x    32           1993605120       0.0%    100.0%      0.0%
 flops    13 x    13 x    32           5264363520       0.0%    100.0%      0.0%
 flops     2 x    32 x     2           6569164800       0.0%    100.0%      0.0%
 flops     5 x    32 x     5          28053491200       0.0%    100.0%      0.0%
 flops     2 x    32 x     8          28820275200       0.0%    100.0%      0.0%
 flops     8 x    32 x     2          28820275200       0.0%    100.0%      0.0%
 flops     5 x    32 x    13          73081815040       0.0%    100.0%      0.0%
 flops    13 x    32 x     5          73081815040       0.0%    100.0%      0.0%
 flops     8 x    32 x     8         120795955200       0.0%    100.0%      0.0%
 flops    13 x    32 x    13         190012719104       0.0%    100.0%      0.0%
 flops inhomo. stacks                           0       0.0%      0.0%      0.0%
 flops total                       580.448525E+09       0.0%    100.0%      0.0%
 flops max/rank                     24.621685E+09       0.0%    100.0%      0.0%
 matmuls inhomo. stacks                         0       0.0%      0.0%      0.0%
 matmuls total                          190812426       0.0%    100.0%      0.0%
 number of processed stacks               2186640       0.0%    100.0%      0.0%
 average stack size                                     0.0      87.3       0.0
 marketing flops                   591.579316E+09
 -------------------------------------------------------------------------------
 # multiplications                           1453
 max memory usage/rank             870.801408E+06
 # max total images/rank                        5
 # max 3D layers                                1
 # MPI messages exchanged                 1917960
 MPI messages size (bytes):
  total size                       123.922293E+09
  min size                           0.000000E+00
  max size                         176.800000E+03
  average size                      64.611512E+03
 MPI breakdown and total messages size (bytes):
             size <=      128              514086                        0
       128 < size <=     8192               17520                  8505216
      8192 < size <=    32768              387318               7396060032
     32768 < size <=   131072              589356              57999446496
    131072 < size <=  4194304              409680              58509678240
   4194304 < size <= 16777216                   0                        0
  16777216 < size                               0                        0
 -------------------------------------------------------------------------------

 *** WARNING in dbcsr_mm.F:294 :: Using a non-square number of MPI ranks ***
 *** might lead to poor performance. Used ranks: 40 Suggested: 36 81     ***

 -------------------------------------------------------------------------------
 -                                                                             -
 -                      DBCSR MESSAGE PASSING PERFORMANCE                      -
 -                                                                             -
 -------------------------------------------------------------------------------
 ROUTINE             CALLS      AVE VOLUME [Bytes]
 MP_Bcast               49                     12.
 MP_Allreduce         5019                      8.
 MP_Alltoall         45206                  33899.
 MP_ISend           110198                  31913.
 MP_IRecv           115780                  29885.
 -------------------------------------------------------------------------------

 -------------------------------------------------------------------------------
 -                                                                             -
 -                                GRID STATISTICS                              -
 -                                                                             -
 -------------------------------------------------------------------------------
 LP    KERNEL             BACKEND                              COUNT     PERCENT
 1     collocate general  REF                                8913505      16.33%
 3     collocate general  REF                                8786640      16.10%
 3     integrate general  REF                                8713418      15.96%
 0     collocate general  REF                                7323539      13.42%
 2     collocate general  REF                                7297574      13.37%
 2     integrate general  REF                                4595066       8.42%
 4     collocate general  REF                                4495440       8.24%
 4     integrate general  REF                                4457978       8.17%
 -------------------------------------------------------------------------------

 MEMORY| Estimated peak process memory [MiB]                                 831

 -------------------------------------------------------------------------------
 ----                             MULTIGRID INFO                            ----
 -------------------------------------------------------------------------------
 count for grid        1:         222296          cutoff [a.u.]          175.00
 count for grid        2:         200138          cutoff [a.u.]           58.33
 count for grid        3:         186241          cutoff [a.u.]           19.44
 count for grid        4:          73846          cutoff [a.u.]            6.48
 total gridlevel count  :         682521

 -------------------------------------------------------------------------------
 -                                                                             -
 -                         MESSAGE PASSING PERFORMANCE                         -
 -                                                                             -
 -------------------------------------------------------------------------------

 ROUTINE             CALLS      AVE VOLUME [Bytes]
 MP_Group                4
 MP_Bcast              607                1833278.
 MP_Allreduce        21754                    304.
 MP_Sync              1337
 MP_Alltoall          7156               10307054.
 MP_ISendRecv        74568                  63193.
 MP_Wait            149291
 MP_comm_split          70
 MP_ISend            67444                 299674.
 MP_IRecv            68266                 297168.
 MP_Recv               378                 149650.
 -------------------------------------------------------------------------------


 -------------------------------------------------------------------------------
 -                                                                             -
 -                           R E F E R E N C E S                               -
 -                                                                             -
 -------------------------------------------------------------------------------
 
 CP2K version 9.1, the CP2K developers group (2021).
 CP2K is freely available from https://www.cp2k.org/ .

 Kuehne,Thomas D.; Iannuzzi,Marcella; Del Ben,Mauro;
 Rybkin,Vladimir V.; Seewald,Patrick; Stein,Frederick; Laino,Teodoro;
 Khaliullin,Rustam Z.; Schuett,Ole; Schiffmann,Florian; Golze,Dorothea;
 Wilhelm,Jan; Chulkov,Sergey; Bani-Hashemian,Mohammad Hossein;
 Weber,Valery; Borstnik,Urban; Taillefumier,Mathieu;
 Jakobovits,Alice Shoshana; Lazzaro,Alfio; Pabst,Hans; Mueller,Tiziano;
 Schade,Robert; Guidon,Manuel; Andermatt,Samuel; Holmberg,Nico;
 Schenter,Gregory K.; Hehn,Anna; Bussy,Augustin; Belleflamme,Fabian;
 Tabacchi,Gloria; Gloess,Andreas; Lass,Michael; Bethune,Iain;
 Mundy,Christopher J.; Plessl,Christian; Watkins,Matt;
 VandeVondele,Joost; Krack,Matthias; Hutter,Juerg. 
 The Journal of Chemical Physics, 152 (19), (2020). 
 CP2K: An electronic structure and molecular dynamics software package -
 Quickstep: Efficient and accurate electronic structure calculations.
 https://doi.org/10.1063/5.0007045

 Goerigk, Lars; Hansen, Andreas; Bauer, Christoph; Ehrlich, Stephan;
 Najibi, Asim; Grimme, Stefan. , 19 (48), (2017). 
 A look at the density functional theory zoo with the advanced GMTKN55 database
 for general main group thermochemistry, kinetics and noncovalent interactions.
 https://doi.org/10.1039/C7CP04913G

 Schuett, Ole; Messmer, Peter; Hutter, Juerg; VandeVondele, Joost. 
 Electronic Structure Calculations on Graphics Processing Units, John
 Wiley & Sons, Ltd, 173-190 (2016). 
 GPU-Accelerated Sparse Matrix-Matrix Multiplication for
 Linear Scaling Density Functional Theory.
 https://doi.org/10.1002/9781118670712.ch8

 Heinecke, A; Henry, G; Hutchinson, M; Pabst, H. 
 Proceedings of Intl. Supercomputing Conference, 981-991 (2016). 
 LIBXSMM: Accelerating Small Matrix Multiplications
 by Runtime Code Generation.
 https://doi.org/10.1109/SC.2016.83

 Borstnik, U; VandeVondele, J; Weber, V; Hutter, J. 
 PARALLEL COMPUTING, 40 (5-6), 47-58 (2014). 
 Sparse matrix multiplication: The distributed block-compressed sparse
 row library.
 https://doi.org/10.1016/j.parco.2014.03.012

 Hutter, J; Iannuzzi, M; Schiffmann, F; VandeVondele, J. 
 WIREs Comput Mol Sci., 4 (1), 15-25 (2014). 
 CP2K: atomistic simulations of condensed matter systems.
 https://doi.org/10.1002/wcms.1159

 Grimme, S; Ehrlich, S; Goerigk, L. 
 JOURNAL OF COMPUTATIONAL CHEMISTRY, 32, 1456 (2011). 
 Effect of the damping function in dispersion corrected density functional theory.
 https://doi.org/10.1002/jcc.21759

 Guidon, M; Hutter, J; VandeVondele, J. 
 JOURNAL OF CHEMICAL THEORY AND COMPUTATION, 6 (8), 2348-2364 (2010). 
 Auxiliary Density Matrix Methods for Hartree-Fock Exchange Calculations.
 https://doi.org/10.1021/ct1002225

 Grimme, S; Antony, J; Ehrlich, S; Krieg, H. 
 JOURNAL OF CHEMICAL PHYSICS, 132 (15), 154104 (2010). 
 A consistent and accurate ab initio parametrization of density
 functional dispersion correction (DFT-D) for the 94 elements H-Pu.
 https://doi.org/10.1063/1.3382344

 Guidon, M; Hutter, J; VandeVondele, J. 
 JOURNAL OF CHEMICAL THEORY AND COMPUTATION, 5 (11), 3010-3021 (2009). 
 Robust Periodic Hartree-Fock Exchange for Large-Scale Simulations Using
 Gaussian Basis Sets.
 https://doi.org/10.1021/ct900494g

 Guidon, M; Schiffmann, F; Hutter, J; VandeVondele, J. 
 JOURNAL OF CHEMICAL PHYSICS, 128 (21), 214104 (2008). 
 Ab initio molecular dynamics using hybrid density functionals.
 https://doi.org/10.1063/1.2931945

 VandeVondele, J; Hutter, J. 
 JOURNAL OF CHEMICAL PHYSICS, 127 (11), 114105 (2007). 
 Gaussian basis sets for accurate calculations on molecular systems in
 gas and condensed phases.
 https://doi.org/10.1063/1.2770708

 Krack, M. 
 THEORETICAL CHEMISTRY ACCOUNTS, 114 (1-3), 145-152 (2005). 
 Pseudopotentials for H to Kr optimized for gradient-corrected
 exchange-correlation functionals.
 https://doi.org/10.1007/s00214-005-0655-y

 VandeVondele, J; Krack, M; Mohamed, F; Parrinello, M; Chassaing, T;
 Hutter, J. COMPUTER PHYSICS COMMUNICATIONS, 167 (2), 103-128 (2005). 
 QUICKSTEP: Fast and accurate density functional calculations using a
 mixed Gaussian and plane waves approach.
 https://doi.org/10.1016/j.cpc.2004.12.014

 Frigo, M; Johnson, SG. 
 PROCEEDINGS OF THE IEEE, 93 (2), 216-231 (2005). 
 The design and implementation of FFTW3.
 https://doi.org/10.1109/JPROC.2004.840301

 Iannuzzi, M; Chassaing, T; Wallman, T; Hutter, J. 
 CHIMIA, 59 (7-8), 499-503 (2005). 
 Ground and excited state density functional calculations with the
 Gaussian and augmented-plane-wave method.
 https://doi.org/10.2533/000942905777676164

 Martin,Richard L.. 
 The Journal of Chemical Physics, 118 (11), 4775-4777 (2003). 
 Natural transition orbitals.
 https://doi.org/10.1063/1.1558471

 Hartwigsen, C; Goedecker, S; Hutter, J. 
 PHYSICAL REVIEW B, 58 (7), 3641-3662 (1998). 
 Relativistic separable dual-space Gaussian pseudopotentials from H to Rn.
 https://doi.org/10.1103/PhysRevB.58.3641

 Lippert, G; Hutter, J; Parrinello, M. 
 MOLECULAR PHYSICS, 92 (3), 477-487 (1997). 
 A hybrid Gaussian and plane wave density functional scheme.
 https://doi.org/10.1080/002689797170220

 Goedecker, S; Teter, M; Hutter, J. 
 PHYSICAL REVIEW B, 54 (3), 1703-1710 (1996). 
 Separable dual-space Gaussian pseudopotentials.
 https://doi.org/10.1103/PhysRevB.54.1703

 BECKE, AD. PHYSICAL REVIEW A, 38 (6), 3098-3100 (1988). 
 DENSITY-FUNCTIONAL EXCHANGE-ENERGY APPROXIMATION WITH CORRECT
 ASYMPTOTIC-BEHAVIOR.
 https://doi.org/10.1103/PhysRevA.38.3098

 LEE, CT; YANG, WT; PARR, RG. 
 PHYSICAL REVIEW B, 37 (2), 785-789 (1988). 
 DEVELOPMENT OF THE COLLE-SALVETTI CORRELATION-ENERGY FORMULA INTO A
 FUNCTIONAL OF THE ELECTRON-DENSITY.
 https://doi.org/10.1103/PhysRevB.37.785

 VOSKO, SH; WILK, L; NUSAIR, M. 
 CANADIAN JOURNAL OF PHYSICS, 58 (8), 1200-1211 (1980). 
 ACCURATE SPIN-DEPENDENT ELECTRON LIQUID CORRELATION ENERGIES FOR LOCAL
 SPIN-DENSITY CALCULATIONS - A CRITICAL ANALYSIS.
 https://doi.org/10.1139/p80-159


 -------------------------------------------------------------------------------
 -                                                                             -
 -                                T I M I N G                                  -
 -                                                                             -
 -------------------------------------------------------------------------------
 SUBROUTINE                       CALLS  ASD         SELF TIME        TOTAL TIME
                                MAXIMUM       AVERAGE  MAXIMUM  AVERAGE  MAXIMUM
 CP2K                                 1  1.0    0.028    0.132 1534.211 1534.217
 qs_energies                          1  2.0    0.000    0.000 1533.606 1533.613
 qs_energies_properties               1  3.0    0.000    0.000 1243.210 1243.219
 tddfpt                               1  4.0    0.001    0.002 1243.209 1243.218
 tddfpt_davidson_solver               2  5.0    0.003    0.005 1236.743 1236.748
 tddfpt_compute_Aop_evects           10  6.0    0.001    0.001 1232.503 1232.508
 integrate_four_center              238  9.0    0.297    0.673 1110.647 1110.652
 integrate_four_center_main         238 10.0    0.075    0.084 1061.032 1085.890
 integrate_four_center_bin        15232 11.0 1060.957 1085.822 1060.957 1085.822
 tddfpt_apply_hfx                    10  7.0    0.005    0.008  901.725  901.729
 tddft_hfx_matrix                   200  8.0    0.006    0.007  897.043  897.048
 fhxc_kernel                         10  7.0    0.011    0.013  329.465  329.467
 scf_env_do_scf                       1  3.0    0.000    0.000  288.373  288.987
 scf_env_do_scf_inner_loop           38  4.0    0.037    1.455  288.373  288.987
 qs_ks_update_qs_env                 38  5.0    0.000    0.000  260.693  260.731
 rebuild_ks_matrix                   38  6.0    0.000    0.000  259.269  259.271
 qs_ks_build_kohn_sham_matrix        38  7.0    0.005    0.005  259.269  259.271
 hfx_ks_matrix                       38  8.0    0.001    0.001  213.623  213.624
 calculate_rho_elec                 479  8.7    0.956    1.074  169.338  169.353
 pw_transfer                       6169 10.2    0.513    0.605  152.882  153.576
 fft_wrap_pw1pw2                   5693 11.2    0.067    0.076  151.068  151.668
 fft_wrap_pw1pw2_180               3542 12.0   12.863   14.039  144.751  145.400
 fft3d_ps                          5693 13.2   62.196   66.870  111.550  113.159
 density_rs2pw                      479  9.7    0.030    0.033   90.085   98.006
 qs_rho_update_rho                  240  7.5    0.002    0.003   97.856   97.863
 integrate_v_rspace                 238  8.2    0.009    0.010   95.642   96.162
 tddfpt_apply_xc_analytic           400  8.0    1.558    1.767   90.819   91.435
 grid_collocate_task_list           479  9.7   76.826   81.167   76.826   81.167
 rs_pw_transfer                    2869 10.5    0.038    0.046   71.452   79.141
 tddfpt_construct_aux_fit_densi     201  8.0    0.004    0.005   62.475   62.960
 xc_calc_2nd_deriv_analytical       400  9.0    4.528    5.076   60.284   60.535
 mp_sync                           1337 10.6   43.691   58.409   43.691   58.409
 grid_integrate_task_list           238  9.2   52.750   55.331   52.750   55.331
 mp_alltoall_z22v                  5693 15.2   33.997   42.184   33.997   42.184
 potential_pw2rs                    238  9.2    0.038    0.042   39.102   39.623
 rs_pw_transfer_RS2PW_180           480 11.7   16.949   18.984   30.131   37.846
 mp_waitany                       67444 12.5   21.140   32.377   21.140   32.377
 -------------------------------------------------------------------------------

 The number of warnings for this run is : 3
 
 -------------------------------------------------------------------------------
  **** **** ******  **  PROGRAM ENDED AT                 2024-11-11 12:07:25.758
 ***** ** ***  *** **   PROGRAM RAN ON            bc12007.int.ets1.calculquebec.
 **    ****   ******    PROGRAM RAN BY                                  ekadashi
 ***** **    ** ** **   PROGRAM PROCESS ID                               2929056
  **** **  *******  **  PROGRAM STOPPED IN /scratch/ekadashi/Libra_CP2K/SiGe_Het
                                           ero/step2_B3LYP/SET2/job1
