 DBCSR| CPU Multiplication driver                                           XSMM
 DBCSR| Multrec recursion limit                                              512
 DBCSR| Multiplication stack size                                           1000
 DBCSR| Maximum elements for images                                    UNLIMITED
 DBCSR| Multiplicative factor virtual images                                   1
 DBCSR| Use multiplication densification                                       T
 DBCSR| Multiplication size stacks                                             3
 DBCSR| Use memory pool for CPU allocation                                     F
 DBCSR| Number of 3D layers                                               SINGLE
 DBCSR| Use MPI memory allocation                                              F
 DBCSR| Use RMA algorithm                                                      F
 DBCSR| Use Communication thread                                               T
 DBCSR| Communication thread load                                             87
 DBCSR| MPI: My node id                                                        0
 DBCSR| MPI: Number of nodes                                                  40
 DBCSR| OMP: Current number of threads                                         1
 DBCSR| OMP: Max number of threads                                             1
 DBCSR| Split modifier for TAS multiplication algorithm                  1.0E+00


  **** **** ******  **  PROGRAM STARTED AT               2024-11-11 12:16:40.949
 ***** ** ***  *** **   PROGRAM STARTED ON        bc12016.int.ets1.calculquebec.
 **    ****   ******    PROGRAM STARTED BY                              ekadashi
 ***** **    ** ** **   PROGRAM PROCESS ID                               3154658
  **** **  *******  **  PROGRAM STARTED IN /scratch/ekadashi/Libra_CP2K/SiGe_Het
                                           ero/step2_B3LYP/SET2/job2

 CP2K| version string:                                          CP2K version 9.1
 CP2K| source code revision number:                                  git:d8d7100
 CP2K| cp2kflags: omp libint fftw3 libxc parallel mpi3 scalapack xsmm plumed2   
 CP2K| is freely available from                            https://www.cp2k.org/
 CP2K| Program compiled at                       Thu 20 Jan 2022 10:47:29 PM UTC
 CP2K| Program compiled on                           build-node.computecanada.ca
 CP2K| Program compiled for                                   Linux-x86-64-gofbf
 CP2K| Data directory path    /cvmfs/soft.computecanada.ca/easybuild/software/20
 CP2K| Input file name                                       Diag_libra-2011.inp

 GLOBAL| Force Environment number                                              1
 GLOBAL| Basis set file name                                        BASIS_MOLOPT
 GLOBAL| Potential file name                                           POTENTIAL
 GLOBAL| MM Potential file name                                     MM_POTENTIAL
 GLOBAL| Coordinate file name                                     coord-2011.xyz
 GLOBAL| Method name                                                        CP2K
 GLOBAL| Project name                                            Diag_libra-2011
 GLOBAL| Run type                                                         ENERGY
 GLOBAL| FFT library                                                       FFTW3
 GLOBAL| Diagonalization library                                       ScaLAPACK
 GLOBAL| Orthonormality check for eigenvectors                          DISABLED
 GLOBAL| Matrix multiplication library                                 ScaLAPACK
 GLOBAL| All-to-all communication in single precision                          F
 GLOBAL| FFTs using library dependent lengths                                  F
 GLOBAL| Grid backend                                                       AUTO
 GLOBAL| Global print level                                               MEDIUM
 GLOBAL| MPI I/O enabled                                                       T
 GLOBAL| Total number of message passing processes                            40
 GLOBAL| Number of threads for this process                                    1
 GLOBAL| This output is from process                                           0
 GLOBAL| Stack size for threads created by OpenMP (OMP_STACKSIZE)        default
 GLOBAL| CPU model name                 Intel(R) Xeon(R) Gold 6148 CPU @ 2.40GHz
 GLOBAL| CPUID                                                              1003

 MEMORY| system memory details [Kb]
 MEMORY|                        rank 0           min           max       average
 MEMORY| MemTotal            196639208     196639208     196639208     196639208
 MEMORY| MemFree             178885424     178885060     178885424     178885069
 MEMORY| Buffers                    76            76            76            76
 MEMORY| Cached                4814032       4814028       4814032       4814028
 MEMORY| Slab                  1530068       1530068       1530068       1530068
 MEMORY| SReclaimable           345068        345068        345068        345068
 MEMORY| MemLikelyFree       184044600     184044232     184044600     184044241


 *** Fundamental physical constants (SI units) ***

 *** Literature: B. J. Mohr and B. N. Taylor,
 ***             CODATA recommended values of the fundamental physical
 ***             constants: 2006, Web Version 5.1
 ***             http://physics.nist.gov/constants

 Speed of light in vacuum [m/s]                             2.99792458000000E+08
 Magnetic constant or permeability of vacuum [N/A**2]       1.25663706143592E-06
 Electric constant or permittivity of vacuum [F/m]          8.85418781762039E-12
 Planck constant (h) [J*s]                                  6.62606896000000E-34
 Planck constant (h-bar) [J*s]                              1.05457162825177E-34
 Elementary charge [C]                                      1.60217648700000E-19
 Electron mass [kg]                                         9.10938215000000E-31
 Electron g factor [ ]                                     -2.00231930436220E+00
 Proton mass [kg]                                           1.67262163700000E-27
 Fine-structure constant                                    7.29735253760000E-03
 Rydberg constant [1/m]                                     1.09737315685270E+07
 Avogadro constant [1/mol]                                  6.02214179000000E+23
 Boltzmann constant [J/K]                                   1.38065040000000E-23
 Atomic mass unit [kg]                                      1.66053878200000E-27
 Bohr radius [m]                                            5.29177208590000E-11

 *** Conversion factors ***

 [u] -> [a.u.]                                              1.82288848426455E+03
 [Angstrom] -> [Bohr] = [a.u.]                              1.88972613288564E+00
 [a.u.] = [Bohr] -> [Angstrom]                              5.29177208590000E-01
 [a.u.] -> [s]                                              2.41888432650478E-17
 [a.u.] -> [fs]                                             2.41888432650478E-02
 [a.u.] -> [J]                                              4.35974393937059E-18
 [a.u.] -> [N]                                              8.23872205491840E-08
 [a.u.] -> [K]                                              3.15774647902944E+05
 [a.u.] -> [kJ/mol]                                         2.62549961709828E+03
 [a.u.] -> [kcal/mol]                                       6.27509468713739E+02
 [a.u.] -> [Pa]                                             2.94210107994716E+13
 [a.u.] -> [bar]                                            2.94210107994716E+08
 [a.u.] -> [atm]                                            2.90362800883016E+08
 [a.u.] -> [eV]                                             2.72113838565563E+01
 [a.u.] -> [Hz]                                             6.57968392072181E+15
 [a.u.] -> [1/cm] (wave numbers)                            2.19474631370540E+05
 [a.u./Bohr**2] -> [1/cm]                                   5.14048714338585E+03
 

 CELL_TOP| Volume [angstrom^3]:                                      6540.008810
 CELL_TOP| Vector a [angstrom    15.928     0.000     0.000   |a| =    15.927500
 CELL_TOP| Vector b [angstrom    -7.965    13.786     0.000   |b| =    15.921700
 CELL_TOP| Vector c [angstrom    -0.000     0.000    29.784   |c| =    29.783600
 CELL_TOP| Angle (b,c), alpha [degree]:                                89.999800
 CELL_TOP| Angle (a,c), beta  [degree]:                                90.000200
 CELL_TOP| Angle (a,b), gamma [degree]:                               120.015200
 CELL_TOP| Numerically orthorhombic:                                          NO

 GENERATE|  Preliminary Number of Bonds generated:                             0
 GENERATE|  Achieved consistency in connectivity generation.

 CELL| Volume [angstrom^3]:                                          6540.008810
 CELL| Vector a [angstrom]:      15.928     0.000     0.000   |a| =    15.927500
 CELL| Vector b [angstrom]:      -7.965    13.786     0.000   |b| =    15.921700
 CELL| Vector c [angstrom]:      -0.000     0.000    29.784   |c| =    29.783600
 CELL| Angle (b,c), alpha [degree]:                                    89.999800
 CELL| Angle (a,c), beta  [degree]:                                    90.000200
 CELL| Angle (a,b), gamma [degree]:                                   120.015200
 CELL| Numerically orthorhombic:                                              NO

 CELL_REF| Volume [angstrom^3]:                                      6540.008810
 CELL_REF| Vector a [angstrom    15.928     0.000     0.000   |a| =    15.927500
 CELL_REF| Vector b [angstrom    -7.965    13.786     0.000   |b| =    15.921700
 CELL_REF| Vector c [angstrom    -0.000     0.000    29.784   |c| =    29.783600
 CELL_REF| Angle (b,c), alpha [degree]:                                89.999800
 CELL_REF| Angle (a,c), beta  [degree]:                                90.000200
 CELL_REF| Angle (a,b), gamma [degree]:                               120.015200
 CELL_REF| Numerically orthorhombic:                                          NO

 *******************************************************************************
 *******************************************************************************
 **                                                                           **
 **     #####                         ##              ##                      **
 **    ##   ##            ##          ##              ##                      **
 **   ##     ##                       ##            ######                    **
 **   ##     ##  ##   ##  ##   #####  ##  ##   ####   ##    #####    #####    **
 **   ##     ##  ##   ##  ##  ##      ## ##   ##      ##   ##   ##  ##   ##   **
 **   ##  ## ##  ##   ##  ##  ##      ####     ###    ##   ######   ######    **
 **    ##  ###   ##   ##  ##  ##      ## ##      ##   ##   ##       ##        **
 **     #######   #####   ##   #####  ##  ##  ####    ##    #####   ##        **
 **           ##                                                    ##        **
 **                                                                           **
 **                                                ... make the atoms dance   **
 **                                                                           **
 **            Copyright (C) by CP2K developers group (2000-2021)             **
 **                      J. Chem. Phys. 152, 194103 (2020)                    **
 **                                                                           **
 *******************************************************************************

 DFT| Spin restricted Kohn-Sham (RKS) calculation                            RKS
 DFT| Multiplicity                                                             1
 DFT| Number of spin states                                                    1
 DFT| Charge                                                                   0
 DFT| Self-interaction correction (SIC)                                       NO
 DFT| Cutoffs: density                                              1.000000E-10
 DFT|          gradient                                             1.000000E-10
 DFT|          tau                                                  1.000000E-10
 DFT|          cutoff_smoothing_range                               0.000000E+00
 DFT| XC density smoothing                                                  NONE
 DFT| XC derivatives                                                          PW
 FUNCTIONAL| ROUTINE=NEW
 FUNCTIONAL| BECKE88:
 FUNCTIONAL| A. Becke, Phys. Rev. A 38, 3098 (1988) {LDA version}               
 FUNCTIONAL| LYP:
 FUNCTIONAL| C. Lee, W. Yang, R.G. Parr, Phys. Rev. B, 37, 785 (1988) {LDA versi
 FUNCTIONAL| on}                                                                
 FUNCTIONAL| VWN:
 FUNCTIONAL| S. H. Vosko, L. Wilk and M. Nusair, Can. J. Phys. 58, 1200 (1980) {
 FUNCTIONAL| LDA version}                                                       
 FUNCTIONAL| XALPHA:
 FUNCTIONAL| Dirac/Slater local exchange; parameter=  0.666 {LDA}               
 vdW POTENTIAL|                                                   Pair Potential
 vdW POTENTIAL|          DFT-D3 (Version 3.1)
 vdW POTENTIAL|          Potential Form: S. Grimme et al, JCP 132: 154104 (2010)
 vdW POTENTIAL|          Zero Damping
 vdW POTENTIAL|          Cutoff Radius [Bohr]:                             20.00
 vdW POTENTIAL|          s6 Scaling Factor:                               1.0000
 vdW POTENTIAL|          sr6 Scaling Factor:                              1.2610
 vdW POTENTIAL|          s8 Scaling Factor:                               1.7030
 vdW POTENTIAL|          Cutoff for CN calculation:                   0.1000E-05

 QS| Method:                                                                 GPW
 QS| Density plane wave grid type                        NON-SPHERICAL FULLSPACE
 QS| Number of grid levels:                                                    4
 QS| Density cutoff [a.u.]:                                                175.0
 QS| Multi grid cutoff [a.u.]: 1) grid level                               175.0
 QS|                           2) grid level                                58.3
 QS|                           3) grid level                                19.4
 QS|                           4) grid level                                 6.5
 QS| Grid level progression factor:                                          3.0
 QS| Relative density cutoff [a.u.]:                                        25.0
 QS| Interaction thresholds: eps_pgf_orb:                                1.0E-05
 QS|                         eps_filter_matrix:                          0.0E+00
 QS|                         eps_core_charge:                            1.0E-12
 QS|                         eps_rho_gspace:                             1.0E-10
 QS|                         eps_rho_rspace:                             1.0E-10
 QS|                         eps_gvg_rspace:                             1.0E-05
 QS|                         eps_ppl:                                    1.0E-02
 QS|                         eps_ppnl:                                   1.0E-07


 ATOMIC KIND INFORMATION

  1. Atomic kind: Si                                    Number of atoms:      32

     Orbital Basis Set                                     DZVP-MOLOPT-SR-GTH-q4

       Number of orbital shell sets:                                           1
       Number of orbital shells:                                               5
       Number of primitive Cartesian functions:                                4
       Number of Cartesian basis functions:                                   14
       Number of spherical basis functions:                                   13
       Norm type:                                                              2

       Normalised Cartesian orbitals:

                        Set   Shell   Orbital            Exponent    Coefficient

                          1       1    2s                1.256768       0.294045
                                                         0.506394      -0.015884
                                                         0.238884      -0.207657
                                                         0.087337      -0.036225

                          1       2    3s                1.256768      -1.532347
                                                         0.506394       0.524539
                                                         0.238884       0.025013
                                                         0.087337      -0.052203

                          1       3    3px               1.256768       0.152274
                                                         0.506394      -0.154145
                                                         0.238884      -0.115581
                                                         0.087337      -0.028372
                          1       3    3py               1.256768       0.152274
                                                         0.506394      -0.154145
                                                         0.238884      -0.115581
                                                         0.087337      -0.028372
                          1       3    3pz               1.256768       0.152274
                                                         0.506394      -0.154145
                                                         0.238884      -0.115581
                                                         0.087337      -0.028372

                          1       4    4px               1.256768       0.313378
                                                         0.506394      -0.415360
                                                         0.238884      -0.022539
                                                         0.087337       0.078473
                          1       4    4py               1.256768       0.313378
                                                         0.506394      -0.415360
                                                         0.238884      -0.022539
                                                         0.087337       0.078473
                          1       4    4pz               1.256768       0.313378
                                                         0.506394      -0.415360
                                                         0.238884      -0.022539
                                                         0.087337       0.078473

                          1       5    4dx2              1.256768       0.325879
                                                         0.506394       0.163831
                                                         0.238884       0.044076
                                                         0.087337       0.010608
                          1       5    4dxy              1.256768       0.564439
                                                         0.506394       0.283764
                                                         0.238884       0.076342
                                                         0.087337       0.018373
                          1       5    4dxz              1.256768       0.564439
                                                         0.506394       0.283764
                                                         0.238884       0.076342
                                                         0.087337       0.018373
                          1       5    4dy2              1.256768       0.325879
                                                         0.506394       0.163831
                                                         0.238884       0.044076
                                                         0.087337       0.010608
                          1       5    4dyz              1.256768       0.564439
                                                         0.506394       0.283764
                                                         0.238884       0.076342
                                                         0.087337       0.018373
                          1       5    4dz2              1.256768       0.325879
                                                         0.506394       0.163831
                                                         0.238884       0.044076
                                                         0.087337       0.010608

     Auxiliary Fit Basis Set                                               cFIT3

       Number of orbital shell sets:                                           4
       Number of orbital shells:                                               4
       Number of primitive Cartesian functions:                                6
       Number of Cartesian basis functions:                                    8
       Number of spherical basis functions:                                    8
       Norm type:                                                              2

       Normalised Cartesian orbitals:

                        Set   Shell   Orbital            Exponent    Coefficient

                          1       1    1s                0.096480       0.123378

                          2       1    1s                0.246960      -0.309315
                                                         1.277560       0.429908

                          3       1    1px               0.089490       0.069768
                          3       1    1py               0.089490       0.069768
                          3       1    1pz               0.089490       0.069768

                          4       1    1px               0.295630       0.313983
                                                         2.202470      -0.124968
                          4       1    1py               0.295630       0.313983
                                                         2.202470      -0.124968
                          4       1    1pz               0.295630       0.313983
                                                         2.202470      -0.124968

       Atomic covalent radius [Angstrom]:                                  1.110

       Atomic van der Waals radius [Angstrom]:                             2.100

     GTH Potential information for                                       GTH-PBE

       Description:                       Goedecker-Teter-Hutter pseudopotential
                                           Goedecker et al., PRB 54, 1703 (1996)
                                          Hartwigsen et al., PRB 58, 3641 (1998)
                                                      Krack, TCA 114, 145 (2005)

       Gaussian exponent of the core charge distribution:               2.582645
       Electronic configuration (s p d ...):                               2   2

       Parameters of the local part of the GTH pseudopotential:

                          rloc        C1          C2          C3          C4
                        0.440000   -6.269288

       Parameters of the non-local part of the GTH pseudopotential:

                   l      r(l)      h(i,j,l)

                   0    0.435634    8.951742   -2.706271
                                   -2.706271    3.493781
                   1    0.497942    2.431277

  2. Atomic kind: H                                     Number of atoms:      64

     Orbital Basis Set                                     DZVP-MOLOPT-SR-GTH-q1

       Number of orbital shell sets:                                           1
       Number of orbital shells:                                               3
       Number of primitive Cartesian functions:                                5
       Number of Cartesian basis functions:                                    5
       Number of spherical basis functions:                                    5
       Norm type:                                                              2

       Normalised Cartesian orbitals:

                        Set   Shell   Orbital            Exponent    Coefficient

                          1       1    2s               10.068468      -0.133023
                                                         2.680223      -0.177618
                                                         0.791502      -0.258419
                                                         0.239116      -0.107525
                                                         0.082193      -0.014019

                          1       2    3s               10.068468       0.344673
                                                         2.680223       1.819821
                                                         0.791502      -0.999069
                                                         0.239116       0.017430
                                                         0.082193       0.082660

                          1       3    3px              10.068468       0.155326
                                                         2.680223       0.367157
                                                         0.791502       0.311480
                                                         0.239116       0.080105
                                                         0.082193       0.033440
                          1       3    3py              10.068468       0.155326
                                                         2.680223       0.367157
                                                         0.791502       0.311480
                                                         0.239116       0.080105
                                                         0.082193       0.033440
                          1       3    3pz              10.068468       0.155326
                                                         2.680223       0.367157
                                                         0.791502       0.311480
                                                         0.239116       0.080105
                                                         0.082193       0.033440

     Auxiliary Fit Basis Set                                               cFIT3

       Number of orbital shell sets:                                           2
       Number of orbital shells:                                               2
       Number of primitive Cartesian functions:                                3
       Number of Cartesian basis functions:                                    2
       Number of spherical basis functions:                                    2
       Norm type:                                                              2

       Normalised Cartesian orbitals:

                        Set   Shell   Orbital            Exponent    Coefficient

                          1       1    1s                0.113290       0.139173

                          2       1    1s                0.551250       0.404894
                                                         3.585030       0.334062

       Atomic covalent radius [Angstrom]:                                  0.320

       Atomic van der Waals radius [Angstrom]:                             1.090

     GTH Potential information for                                       GTH-PBE

       Description:                       Goedecker-Teter-Hutter pseudopotential
                                           Goedecker et al., PRB 54, 1703 (1996)
                                          Hartwigsen et al., PRB 58, 3641 (1998)
                                                      Krack, TCA 114, 145 (2005)

       Gaussian exponent of the core charge distribution:              12.500000
       Electronic configuration (s p d ...):                                   1

       Parameters of the local part of the GTH pseudopotential:

                          rloc        C1          C2          C3          C4
                        0.200000   -4.178900    0.724463

  3. Atomic kind: Ge                                    Number of atoms:      32

     Orbital Basis Set                                     DZVP-MOLOPT-SR-GTH-q4

       Number of orbital shell sets:                                           1
       Number of orbital shells:                                               5
       Number of primitive Cartesian functions:                                4
       Number of Cartesian basis functions:                                   14
       Number of spherical basis functions:                                   13
       Norm type:                                                              2

       Normalised Cartesian orbitals:

                        Set   Shell   Orbital            Exponent    Coefficient

                          1       1    2s                3.751626      -0.120003
                                                         1.419172       0.428185
                                                         0.322428      -0.228255
                                                         0.110740      -0.068975

                          1       2    3s                3.751626       0.273885
                                                         1.419172      -0.836040
                                                         0.322428       0.584240
                                                         0.110740      -0.261045

                          1       3    3px               3.751626       0.064521
                                                         1.419172       0.216179
                                                         0.322428      -0.253385
                                                         0.110740      -0.035002
                          1       3    3py               3.751626       0.064521
                                                         1.419172       0.216179
                                                         0.322428      -0.253385
                                                         0.110740      -0.035002
                          1       3    3pz               3.751626       0.064521
                                                         1.419172       0.216179
                                                         0.322428      -0.253385
                                                         0.110740      -0.035002

                          1       4    4px               3.751626      -0.201632
                                                         1.419172      -0.391570
                                                         0.322428       0.486065
                                                         0.110740      -0.127990
                          1       4    4py               3.751626      -0.201632
                                                         1.419172      -0.391570
                                                         0.322428       0.486065
                                                         0.110740      -0.127990
                          1       4    4pz               3.751626      -0.201632
                                                         1.419172      -0.391570
                                                         0.322428       0.486065
                                                         0.110740      -0.127990

                          1       5    4dx2              3.751626      -0.158822
                                                         1.419172       0.193543
                                                         0.322428       0.178643
                                                         0.110740       0.009408
                          1       5    4dxy              3.751626      -0.275088
                                                         1.419172       0.335227
                                                         0.322428       0.309418
                                                         0.110740       0.016296
                          1       5    4dxz              3.751626      -0.275088
                                                         1.419172       0.335227
                                                         0.322428       0.309418
                                                         0.110740       0.016296
                          1       5    4dy2              3.751626      -0.158822
                                                         1.419172       0.193543
                                                         0.322428       0.178643
                                                         0.110740       0.009408
                          1       5    4dyz              3.751626      -0.275088
                                                         1.419172       0.335227
                                                         0.322428       0.309418
                                                         0.110740       0.016296
                          1       5    4dz2              3.751626      -0.158822
                                                         1.419172       0.193543
                                                         0.322428       0.178643
                                                         0.110740       0.009408

     Auxiliary Fit Basis Set                                               cFIT6

       Number of orbital shell sets:                                           4
       Number of orbital shells:                                               4
       Number of primitive Cartesian functions:                                6
       Number of Cartesian basis functions:                                    8
       Number of spherical basis functions:                                    8
       Norm type:                                                              2

       Normalised Cartesian orbitals:

                        Set   Shell   Orbital            Exponent    Coefficient

                          1       1    1s                0.110750       0.136826

                          2       1    1s                0.308366      -0.415436
                                                         1.178430       0.610195

                          3       1    1px               0.110745       0.091064
                          3       1    1py               0.110745       0.091064
                          3       1    1pz               0.110745       0.091064

                          4       1    1px               0.339941       0.397306
                                                         1.591237      -0.423312
                          4       1    1py               0.339941       0.397306
                                                         1.591237      -0.423312
                          4       1    1pz               0.339941       0.397306
                                                         1.591237      -0.423312

       Atomic covalent radius [Angstrom]:                                  1.220

       Atomic van der Waals radius [Angstrom]:                             2.110

     GTH Potential information for                                       GTH-PBE

       Description:                       Goedecker-Teter-Hutter pseudopotential
                                           Goedecker et al., PRB 54, 1703 (1996)
                                          Hartwigsen et al., PRB 58, 3641 (1998)
                                                      Krack, TCA 114, 145 (2005)

       Gaussian exponent of the core charge distribution:               1.714678
       Electronic configuration (s p d ...):                               2   2

       Parameters of the local part of the GTH pseudopotential:

                          rloc        C1          C2          C3          C4
                        0.540000

       Parameters of the non-local part of the GTH pseudopotential:

                   l      r(l)      h(i,j,l)

                   0    0.421865    7.510241   -0.588108   -1.447976
                                   -0.588108   -1.595888    3.738657
                                   -1.447976    3.738657   -2.967467
                   1    0.567529    0.913860    0.546875
                                    0.546875   -0.647072
                   2    0.813914    0.197177


 MOLECULE KIND INFORMATION


 All atoms are their own molecule, skipping detailed information


 TOTAL NUMBERS AND MAXIMUM NUMBERS

  Total number of            - Atomic kinds:                                   3
                             - Atoms:                                        128
                             - Shell sets:                                   128
                             - Shells:                                       512
                             - Primitive Cartesian functions:                576
                             - Cartesian basis functions:                   1216
                             - Spherical basis functions:                   1152

  Maximum angular momentum of- Orbital basis functions:                        2
                             - Local part of the GTH pseudopotential:          2
                             - Non-local part of the GTH pseudopotential:      4

  AUX_FIT ADMM-Basis: 
  Total number of            - Shell sets:                                   384
                             - Shells:                                       384
                             - Primitive Cartesian functions:                576
                             - Cartesian basis functions:                    640
                             - Spherical basis functions:                    640
                               Maximum angular momentum                        1


 MODULE QUICKSTEP:  ATOMIC COORDINATES IN angstrom

 Atom  Kind  Element       X           Y           Z          Z(eff)       Mass
    1   1 Si  14       0.279670    2.342415    1.831642       4.0000     28.0855
    2   1 Si  14       2.211066    1.107024    2.352223       4.0000     28.0855
    3   1 Si  14       4.074727    2.283002    1.552071       4.0000     28.0855
    4   1 Si  14       6.011859    1.163170    2.349534       4.0000     28.0855
    5   1 Si  14      -1.866793    5.682112    1.857065       4.0000     28.0855
    6   1 Si  14       0.079677    4.519125    2.660414       4.0000     28.0855
    7   1 Si  14       1.984069    5.818234    1.845788       4.0000     28.0855
    8   1 Si  14       4.077795    4.609918    2.338083       4.0000     28.0855
    9   2 H    1       0.416445    2.662707    0.322919       1.0000      1.0079
   10   2 H    1       2.386539    0.956081    3.830081       1.0000      1.0079
   11   2 H    1       1.786038    3.400369    5.385468       1.0000      1.0079
   12   2 H    1       3.717686    2.357966    8.912195       1.0000      1.0079
   13   2 H    1       4.098401    2.289017    0.013668       1.0000      1.0079
   14   2 H    1       5.631917    0.756755    3.743432       1.0000      1.0079
   15   2 H    1      -1.616140    3.455974    5.017599       1.0000      1.0079
   16   2 H    1      -0.316290    2.846764    9.278583       1.0000      1.0079
   17   2 H    1      -1.747795    5.425847    0.336585       1.0000      1.0079
   18   2 H    1       0.204418    4.530035    4.139162       1.0000      1.0079
   19   2 H    1       4.042733    0.020116    5.078179       1.0000      1.0079
   20   2 H    1       1.746504    6.083797    9.099629       1.0000      1.0079
   21   2 H    1       1.854952    5.860154    0.372381       1.0000      1.0079
   22   2 H    1       4.262446    4.531273    3.777335       1.0000      1.0079
   23   2 H    1       0.107815    0.255281    5.657284       1.0000      1.0079
   24   2 H    1      -2.242042    6.043631    8.724611       1.0000      1.0079
   25   3 Ge  32       1.854093    3.657137    6.846318       4.0000     72.6400
   26   3 Ge  32       3.873898    2.389775    7.374855       4.0000     72.6400
   27   3 Ge  32      -1.948886    3.425403    6.558539       4.0000     72.6400
   28   3 Ge  32      -0.128667    2.607529    7.809454       4.0000     72.6400
   29   3 Ge  32       3.968098    0.083075    6.657988       4.0000     72.6400
   30   3 Ge  32       1.783066    5.955606    7.560718       4.0000     72.6400
   31   3 Ge  32       0.042757    0.247026    7.166537       4.0000     72.6400
   32   3 Ge  32      -2.200785    5.775312    7.236107       4.0000     72.6400
   33   1 Si  14       8.076248    2.300472    1.774164       4.0000     28.0855
   34   1 Si  14      10.082049    1.161348    2.297150       4.0000     28.0855
   35   1 Si  14      12.179204    2.301201    1.812248       4.0000     28.0855
   36   1 Si  14      14.222593    1.195362    2.443543       4.0000     28.0855
   37   1 Si  14       6.137592    5.743783    1.636325       4.0000     28.0855
   38   1 Si  14       8.148476    4.640906    2.448603       4.0000     28.0855
   39   1 Si  14      10.050179    5.744147    1.631832       4.0000     28.0855
   40   1 Si  14      11.971973    4.562699    2.323407       4.0000     28.0855
   41   2 H    1       7.885834    2.604992    0.267821       1.0000      1.0079
   42   2 H    1       9.928234    1.013131    3.808284       1.0000      1.0079
   43   2 H    1       9.400298    3.124528    5.200250       1.0000      1.0079
   44   2 H    1      12.110968    2.067907    8.713528       1.0000      1.0079
   45   2 H    1      12.143572    2.219739    0.280610       1.0000      1.0079
   46   2 H    1      14.174173    0.872561    3.921924       1.0000      1.0079
   47   2 H    1       6.224417    3.370186    5.155310       1.0000      1.0079
   48   2 H    1       7.954063    2.432952    9.167993       1.0000      1.0079
   49   2 H    1       6.219757    5.899590    0.137477       1.0000      1.0079
   50   2 H    1       8.008791    4.706009    3.897712       1.0000      1.0079
   51   2 H    1      12.497345   -0.771776    5.339167       1.0000      1.0079
   52   2 H    1      10.165697    5.869895    8.775110       1.0000      1.0079
   53   2 H    1       9.860819    5.462258    0.211599       1.0000      1.0079
   54   2 H    1      11.951644    4.533141    3.804922       1.0000      1.0079
   55   2 H    1       7.982309    0.063828    5.080198       1.0000      1.0079
   56   2 H    1       5.856993    6.065354    8.984496       1.0000      1.0079
   57   3 Ge  32       9.965311    3.246418    6.621557       4.0000     72.6400
   58   3 Ge  32      12.108008    2.110481    7.214828       4.0000     72.6400
   59   3 Ge  32       6.077556    3.265972    6.737128       4.0000     72.6400
   60   3 Ge  32       8.064999    2.239382    7.632933       4.0000     72.6400
   61   3 Ge  32      12.225429   -0.349197    6.816355       4.0000     72.6400
   62   3 Ge  32       9.762581    5.627261    7.283280       4.0000     72.6400
   63   3 Ge  32       7.942878   -0.003848    6.690039       4.0000     72.6400
   64   3 Ge  32       5.868015    5.674079    7.500343       4.0000     72.6400
   65   1 Si  14      -3.829752    9.159663    1.502660       4.0000     28.0855
   66   1 Si  14      -1.793659    8.083149    2.326076       4.0000     28.0855
   67   1 Si  14       0.130243    9.217153    1.510571       4.0000     28.0855
   68   1 Si  14       2.221339    8.240017    2.167526       4.0000     28.0855
   69   1 Si  14      -5.857618   12.649029    1.418870       4.0000     28.0855
   70   1 Si  14      -3.924568   11.456944    2.116799       4.0000     28.0855
   71   1 Si  14      -1.791708   12.706120    1.522881       4.0000     28.0855
   72   1 Si  14       0.155482   11.538410    2.284949       4.0000     28.0855
   73   2 H    1      -4.024008    8.844074    0.044952       1.0000      1.0079
   74   2 H    1      -1.907095    8.363583    3.775611       1.0000      1.0079
   75   2 H    1      -1.669172   10.436778    5.029046       1.0000      1.0079
   76   2 H    1      -0.423686    8.838725    9.038272       1.0000      1.0079
   77   2 H    1      -0.062629    9.441236    0.053198       1.0000      1.0079
   78   2 H    1       2.162949    8.402766    3.699765       1.0000      1.0079
   79   2 H    1      -6.732529   10.377465    5.537890       1.0000      1.0079
   80   2 H    1      -3.886479    8.850908    8.629097       1.0000      1.0079
   81   2 H    1      -5.893245   12.853752    0.021714       1.0000      1.0079
   82   2 H    1      -3.968423   11.117791    3.568680       1.0000      1.0079
   83   2 H    1       0.127163    7.481586    5.062655       1.0000      1.0079
   84   2 H    1      -2.223560   12.616184    8.904757       1.0000      1.0079
   85   2 H    1      -1.927376   12.624369    0.053827       1.0000      1.0079
   86   2 H    1       0.308233   11.697271    3.716507       1.0000      1.0079
   87   2 H    1      -4.142914    6.697391    4.773297       1.0000      1.0079
   88   2 H    1      -5.550450   12.601891    9.211202       1.0000      1.0079
   89   3 Ge  32      -2.062623   10.301893    6.554279       4.0000     72.6400
   90   3 Ge  32      -0.257091    9.088238    7.567081       4.0000     72.6400
   91   3 Ge  32      -6.219093   10.222810    6.923934       4.0000     72.6400
   92   3 Ge  32      -4.087107    9.055699    7.159747       4.0000     72.6400
   93   3 Ge  32      -0.260799    6.975393    6.444382       4.0000     72.6400
   94   3 Ge  32      -2.034233   12.677032    7.355084       4.0000     72.6400
   95   3 Ge  32      -4.181169    6.820918    6.293277       4.0000     72.6400
   96   3 Ge  32      -5.921684   12.711184    7.725195       4.0000     72.6400
   97   1 Si  14       4.210410    9.259214    1.283236       4.0000     28.0855
   98   1 Si  14       6.043280    8.058087    2.193119       4.0000     28.0855
   99   1 Si  14       8.051704    9.025936    1.429160       4.0000     28.0855
  100   1 Si  14      10.089907    8.096217    2.272743       4.0000     28.0855
  101   1 Si  14       2.063082   12.626183    1.434719       4.0000     28.0855
  102   1 Si  14       4.216932   11.534942    2.002878       4.0000     28.0855
  103   1 Si  14       6.233107   12.674193    1.401525       4.0000     28.0855
  104   1 Si  14       8.121704   11.354544    1.968904       4.0000     28.0855
  105   2 H    1       4.078692    9.074135   -0.208400       1.0000      1.0079
  106   2 H    1       5.913725    8.248565    3.713463       1.0000      1.0079
  107   2 H    1       6.043541   10.151739    5.902412       1.0000      1.0079
  108   2 H    1       8.158577    9.149069    9.760045       1.0000      1.0079
  109   2 H    1       8.122391    8.781726   -0.030460       1.0000      1.0079
  110   2 H    1       9.953847    8.072457    3.768483       1.0000      1.0079
  111   2 H    1       1.910073   10.050794    5.433342       1.0000      1.0079
  112   2 H    1       3.488395    8.905851    9.237061       1.0000      1.0079
  113   2 H    1       2.057251   12.742242   -0.063373       1.0000      1.0079
  114   2 H    1       4.232241   11.293953    3.503084       1.0000      1.0079
  115   2 H    1       8.060542    7.661805    5.451236       1.0000      1.0079
  116   2 H    1       6.137609   12.832371    9.520979       1.0000      1.0079
  117   2 H    1       6.371804   12.858978   -0.075986       1.0000      1.0079
  118   2 H    1       8.176288   11.227971    3.483228       1.0000      1.0079
  119   2 H    1       3.828374    6.814416    5.256769       1.0000      1.0079
  120   2 H    1       2.145899   12.563439    9.026631       1.0000      1.0079
  121   3 Ge  32       6.019589   10.350418    7.393623       4.0000     72.6400
  122   3 Ge  32       7.920918    9.003208    8.243168       4.0000     72.6400
  123   3 Ge  32       1.790631   10.192955    6.923019       4.0000     72.6400
  124   3 Ge  32       3.862646    9.072068    7.709328       4.0000     72.6400
  125   3 Ge  32       7.796789    6.906077    6.827815       4.0000     72.6400
  126   3 Ge  32       6.224210   12.626454    8.022818       4.0000     72.6400
  127   3 Ge  32       3.891134    6.895458    6.849412       4.0000     72.6400
  128   3 Ge  32       2.056530   12.616498    7.481087       4.0000     72.6400




 SCF PARAMETERS         Density guess:                                   RESTART
                        --------------------------------------------------------
                        max_scf:                                              50
                        max_scf_history:                                       0
                        max_diis:                                              4
                        --------------------------------------------------------
                        eps_scf:                                        1.00E-06
                        eps_scf_history:                                0.00E+00
                        eps_diis:                                       1.00E-01
                        eps_eigval:                                     1.00E-05
                        --------------------------------------------------------
                        level_shift [a.u.]:                                 0.00
                        added MOs                                        50    0
                        --------------------------------------------------------
                        Mixing method:                            BROYDEN_MIXING
                                                charge density mixing in g-space
                        --------------------------------------------------------
                        No outer SCF

 PW_GRID| Information for grid number                                          1
 PW_GRID| Grid distributed over                                    40 processors
 PW_GRID| Real space group dimensions                                    40    1
 PW_GRID| the grid is blocked:                                                NO
 PW_GRID| Cutoff [a.u.]                                                    175.0
 PW_GRID| spherical cutoff:                                                   NO
 PW_GRID|   Bounds   1            -90      89                Points:         180
 PW_GRID|   Bounds   2            -90      89                Points:         180
 PW_GRID|   Bounds   3           -180     179                Points:         360
 PW_GRID| Volume element (a.u.^3)  0.3784E-02     Volume (a.u.^3)     44134.1676
 PW_GRID| Grid span                                                    FULLSPACE
 PW_GRID|   Distribution                         Average         Max         Min
 PW_GRID|   G-Vectors                           291600.0      291600      291600
 PW_GRID|   G-Rays                                1620.0        1620        1620
 PW_GRID|   Real Space Points                   291600.0      324000      259200

 PW_GRID| Information for grid number                                          2
 PW_GRID| Number of the reference grid                                         1
 PW_GRID| Grid distributed over                                    40 processors
 PW_GRID| Real space group dimensions                                    40    1
 PW_GRID| the grid is blocked:                                                NO
 PW_GRID| Cutoff [a.u.]                                                     58.3
 PW_GRID| spherical cutoff:                                                   NO
 PW_GRID|   Bounds   1            -54      53                Points:         108
 PW_GRID|   Bounds   2            -54      53                Points:         108
 PW_GRID|   Bounds   3           -100      99                Points:         200
 PW_GRID| Volume element (a.u.^3)  0.1892E-01     Volume (a.u.^3)     44134.1676
 PW_GRID| Grid span                                                    FULLSPACE
 PW_GRID|   Distribution                         Average         Max         Min
 PW_GRID|   G-Vectors                            58320.0       59724       57024
 PW_GRID|   G-Rays                                 540.0         553         528
 PW_GRID|   Real Space Points                    58320.0       64800       43200

 PW_GRID| Information for grid number                                          3
 PW_GRID| Number of the reference grid                                         1
 PW_GRID| Grid distributed over                                    40 processors
 PW_GRID| Real space group dimensions                                    40    1
 PW_GRID| the grid is blocked:                                                NO
 PW_GRID| Cutoff [a.u.]                                                     19.4
 PW_GRID| spherical cutoff:                                                   NO
 PW_GRID|   Bounds   1            -30      29                Points:          60
 PW_GRID|   Bounds   2            -30      29                Points:          60
 PW_GRID|   Bounds   3            -60      59                Points:         120
 PW_GRID| Volume element (a.u.^3)  0.1022         Volume (a.u.^3)     44134.1676
 PW_GRID| Grid span                                                    FULLSPACE
 PW_GRID|   Distribution                         Average         Max         Min
 PW_GRID|   G-Vectors                            10800.0       11040       10380
 PW_GRID|   G-Rays                                 180.0         184         173
 PW_GRID|   Real Space Points                    10800.0       14400        7200

 PW_GRID| Information for grid number                                          4
 PW_GRID| Number of the reference grid                                         1
 PW_GRID| Grid distributed over                                    40 processors
 PW_GRID| Real space group dimensions                                     5    8
 PW_GRID| the grid is blocked:                                                NO
 PW_GRID| Cutoff [a.u.]                                                      6.5
 PW_GRID| spherical cutoff:                                                   NO
 PW_GRID|   Bounds   1            -18      17                Points:          36
 PW_GRID|   Bounds   2            -18      17                Points:          36
 PW_GRID|   Bounds   3            -36      35                Points:          72
 PW_GRID| Volume element (a.u.^3)  0.4730         Volume (a.u.^3)     44134.1676
 PW_GRID| Grid span                                                    FULLSPACE
 PW_GRID|   Distribution                         Average         Max         Min
 PW_GRID|   G-Vectors                             2332.8        2520        2160
 PW_GRID|   G-Rays                                  64.8          70          60
 PW_GRID|   Real Space Points                     2332.8        2880        2016

 POISSON| Solver                                                        PERIODIC
 POISSON| Periodicity                                                        XYZ

 RS_GRID| Information for grid number                                          1
 RS_GRID|   Bounds   1            -90      89                Points:         180
 RS_GRID|   Bounds   2            -90      89                Points:         180
 RS_GRID|   Bounds   3           -180     179                Points:         360
 RS_GRID| Real space distribution over                                  4 groups
 RS_GRID| Real space distribution along direction                              2
 RS_GRID| Border size                                                         38
 RS_GRID| Real space distribution over                                 10 groups
 RS_GRID| Real space distribution along direction                              3
 RS_GRID| Border size                                                         38
 RS_GRID|   Distribution                         Average         Max         Min
 RS_GRID|   Planes                                 121.0         121         121
 RS_GRID|   Distribution                         Average         Max         Min
 RS_GRID|   Planes                                 112.0         112         112

 RS_GRID| Information for grid number                                          2
 RS_GRID|   Bounds   1            -54      53                Points:         108
 RS_GRID|   Bounds   2            -54      53                Points:         108
 RS_GRID|   Bounds   3           -100      99                Points:         200
 RS_GRID| Real space distribution over                                  4 groups
 RS_GRID| Real space distribution along direction                              2
 RS_GRID| Border size                                                         38
 RS_GRID| Real space distribution over                                 10 groups
 RS_GRID| Real space distribution along direction                              3
 RS_GRID| Border size                                                         38
 RS_GRID|   Distribution                         Average         Max         Min
 RS_GRID|   Planes                                 103.0         103         103
 RS_GRID|   Distribution                         Average         Max         Min
 RS_GRID|   Planes                                  96.0          96          96

 RS_GRID| Information for grid number                                          3
 RS_GRID|   Bounds   1            -30      29                Points:          60
 RS_GRID|   Bounds   2            -30      29                Points:          60
 RS_GRID|   Bounds   3            -60      59                Points:         120
 RS_GRID| Real space fully replicated
 RS_GRID| Group size                                                           1

 RS_GRID| Information for grid number                                          4
 RS_GRID|   Bounds   1            -18      17                Points:          36
 RS_GRID|   Bounds   2            -18      17                Points:          36
 RS_GRID|   Bounds   3            -36      35                Points:          72
 RS_GRID| Real space fully replicated
 RS_GRID| Group size                                                           1

  HFX_INFO| Replica ID:                                                        1
  HFX_INFO| FRACTION:                                               0.2000000000
  HFX_INFO| Interaction Potential:                                     TRUNCATED
  HFX_INFO| Cutoff Radius [angstrom]:                               6.0000000000
  HFX_INFO| EPS_SCHWARZ:                                                 1.0E-08
  HFX_INFO| EPS_SCHWARZ_FORCES                                           1.0E-06
  HFX_INFO| EPS_STORAGE_SCALING:                                         1.0E-01
  HFX_INFO| NBINS:                                                            64
  HFX_INFO| BLOCK_SIZE:                                                        2
  HFX_INFO| NUMBER_OF_SHELLS:                                               AUTO
  HFX_INFO| Number of periodic shells considered:                             -1
  HFX_INFO| Number of periodic cells considered:                              27


 Number of electrons:                                                        320
 Number of occupied orbitals:                                                160
 Number of molecular orbitals:                                               210

 Number of orbital functions:                                               1152
 Number of independent orbital functions:                                   1152

 Extrapolation method: initial_guess

 *** WARNING in qs_initial_guess.F:309 :: User requested to restart the    ***
 *** wavefunction from the file named: Diag_libra-2011-RESTART.wfn. This   ***
 *** file does not exist. Please check the existence of the file or change ***
 *** properly the value of the keyword WFN_RESTART_FILE_NAME. Calculation  ***
 *** continues using ATOMIC GUESS.                                         ***


 Atomic guess: The first density matrix is obtained in terms of atomic orbitals
               and electronic configurations assigned to each atomic kind

 Guess for atomic kind: Si

 Electronic structure
    Total number of core electrons                                         10.00
    Total number of valence electrons                                       4.00
    Total number of electrons                                              14.00
    Multiplicity                                                   not specified
    S   [  2.00  2.00] 2.00
    P   [  6.00] 2.00


 *******************************************************************************
                  Iteration          Convergence                     Energy [au]
 *******************************************************************************
                          1        0.526541E-01                  -3.659692963728
                          2        0.125823E-01                  -3.661785675622
                          3        0.408986E-04                  -3.661911567360
                          4        0.675570E-07                  -3.661911568709

 Energy components [Hartree]           Total Energy ::           -3.661911568709
                                        Band Energy ::           -0.941881516273
                                     Kinetic Energy ::            1.409736465412
                                   Potential Energy ::           -5.071648034121
                                      Virial (-V/T) ::            3.597585902439
                                        Core Energy ::           -5.690149137281
                                          XC Energy ::           -0.992569238249
                                     Coulomb Energy ::            3.020806806821
                       Total Pseudopotential Energy ::           -7.143143335066
                       Local Pseudopotential Energy ::           -8.006124475851
                    Nonlocal Pseudopotential Energy ::            0.862981140786
                                        Confinement ::            0.432577323720

 Orbital energies  State     L     Occupation   Energy[a.u.]          Energy[eV]

                       1     0          2.000      -0.357276           -9.721984

                       1     1          2.000      -0.113664           -3.092965


 Total Electron Density at R=0:                                         0.000026

 Guess for atomic kind: H

 Electronic structure
    Total number of core electrons                                          0.00
    Total number of valence electrons                                       1.00
    Total number of electrons                                               1.00
    Multiplicity                                                   not specified
    S      1.00


 *******************************************************************************
                  Iteration          Convergence                     Energy [au]
 *******************************************************************************
                          1        0.250972E-02                  -0.375256815885
                          2        0.570752E-04                  -0.375258666164
                          3        0.832405E-09                  -0.375258667122

 Energy components [Hartree]           Total Energy ::           -0.375258667122
                                        Band Energy ::           -0.076317618391
                                     Kinetic Energy ::            0.771356566341
                                   Potential Energy ::           -1.146615233463
                                      Virial (-V/T) ::            1.486491829455
                                        Core Energy ::           -0.456090715790
                                          XC Energy ::           -0.314218627334
                                     Coulomb Energy ::            0.395050676003
                       Total Pseudopotential Energy ::           -1.238482237174
                       Local Pseudopotential Energy ::           -1.238482237174
                    Nonlocal Pseudopotential Energy ::            0.000000000000
                                        Confinement ::            0.110349550431

 Orbital energies  State     L     Occupation   Energy[a.u.]          Energy[eV]

                       1     0          1.000      -0.076318           -2.076708


 Total Electron Density at R=0:                                         0.425022

 Guess for atomic kind: Ge

 Electronic structure
    Total number of core electrons                                         28.00
    Total number of valence electrons                                       4.00
    Total number of electrons                                              32.00
    Multiplicity                                                   not specified
    S   [  2.00  2.00  2.00] 2.00
    P   [  6.00  6.00] 2.00
    D   [ 10.00]


 *******************************************************************************
                  Iteration          Convergence                     Energy [au]
 *******************************************************************************
                          1        0.142224                      -3.669910672039
                          2        0.333188E-01                  -3.687823698339
                          3        0.522642E-04                  -3.688875018994
                          4        0.333285E-05                  -3.688875020047
                          5        0.154106E-05                  -3.688875020053
                          6        0.996835E-06                  -3.688875020055

 Energy components [Hartree]           Total Energy ::           -3.688875020055
                                        Band Energy ::           -0.991816616960
                                     Kinetic Energy ::            1.446010121603
                                   Potential Energy ::           -5.134885141658
                                      Virial (-V/T) ::            3.551071368687
                                        Core Energy ::           -5.696847161393
                                          XC Energy ::           -0.988567154744
                                     Coulomb Energy ::            2.996539296082
                       Total Pseudopotential Energy ::           -7.185566698510
                       Local Pseudopotential Energy ::           -7.622158091196
                    Nonlocal Pseudopotential Energy ::            0.436591392686
                                        Confinement ::            0.427094155139

 Orbital energies  State     L     Occupation   Energy[a.u.]          Energy[eV]

                       1     0          2.000      -0.391724          -10.659354

                       1     1          2.000      -0.104184           -2.834997


 Total Electron Density at R=0:                                         0.000078
 Re-scaling the density matrix to get the right number of electrons
                  # Electrons              Trace(P)               Scaling factor
                          320               320.000                        1.000


 SCF WAVEFUNCTION OPTIMIZATION

  Step     Update method      Time    Convergence         Total energy    Change
  ------------------------------------------------------------------------------

  HFX_MEM_INFO| Est. max. program size before HFX [MiB]:                     520

 *** WARNING in hfx_energy_potential.F:591 :: The Kohn Sham matrix is not  ***
 *** 100% occupied. This may result in incorrect Hartree-Fock results. Try ***
 *** to decrease EPS_PGF_ORB and EPS_FILTER_MATRIX in the QS section. For  ***
 *** more information see FAQ: https://www.cp2k.org/faq:hfx_eps_warning    ***

  HFX_MEM_INFO| Number of cart. primitive ERI's calculated:          16131733780
  HFX_MEM_INFO| Number of sph. ERI's calculated:                      4159597928
  HFX_MEM_INFO| Number of sph. ERI's stored in-core:                  4159597585
  HFX_MEM_INFO| Number of sph. ERI's stored on disk:                           0
  HFX_MEM_INFO| Number of sph. ERI's calculated on the fly:                    0
  HFX_MEM_INFO| Total memory consumption ERI's RAM [MiB]:                   6536
  HFX_MEM_INFO| Whereof max-vals [MiB]:                                      278
  HFX_MEM_INFO| Total compression factor ERI's RAM:                         4.86
  HFX_MEM_INFO| Total memory consumption ERI's disk [MiB]:                     0
  HFX_MEM_INFO| Total compression factor ERI's disk:                        0.00
  HFX_MEM_INFO| Size of density/Fock matrix [MiB]:                             2
  HFX_MEM_INFO| Size of buffers [MiB]:                                         1
  HFX_MEM_INFO| Number of periodic image cells considered:                    27
  HFX_MEM_INFO| Est. max. program size after HFX  [MiB]:                     693

     1 NoMix/Diag. 0.30E+00   47.1     1.44943237      -266.1117928256 -2.66E+02
     2 Broy./Diag. 0.30E+00    6.5     0.64356253      -277.4120657842 -1.13E+01
     3 Broy./Diag. 0.30E+00    6.2     0.38627314      -281.8671323366 -4.46E+00
     4 Broy./Diag. 0.30E+00    6.2     0.08762088      -284.6062028576 -2.74E+00
     5 Broy./Diag. 0.30E+00    6.5     0.03242204      -286.4631417656 -1.86E+00
     6 Broy./Diag. 0.30E+00    6.3     0.02932853      -287.4964159339 -1.03E+00
     7 Broy./Diag. 0.30E+00    6.5     0.00596785      -287.8347359579 -3.38E-01
     8 Broy./Diag. 0.30E+00    6.3     0.01114686      -287.7608550982  7.39E-02
     9 Broy./Diag. 0.30E+00    6.5     0.00862429      -287.8237770506 -6.29E-02
    10 Broy./Diag. 0.30E+00    6.4     0.00634730      -287.8576604748 -3.39E-02
    11 Broy./Diag. 0.30E+00    6.3     0.00499193      -287.8428014547  1.49E-02
    12 Broy./Diag. 0.30E+00    6.6     0.00425843      -287.9232217298 -8.04E-02
    13 Broy./Diag. 0.30E+00    6.3     0.00180084      -287.9657447452 -4.25E-02
    14 Broy./Diag. 0.30E+00    6.5     0.00213636      -287.9661934616 -4.49E-04
    15 Broy./Diag. 0.30E+00    6.3     0.00073186      -287.9698568661 -3.66E-03
    16 Broy./Diag. 0.30E+00    6.5     0.00178237      -287.9611787034  8.68E-03
    17 Broy./Diag. 0.30E+00    6.4     0.00047340      -287.9605485400  6.30E-04
    18 Broy./Diag. 0.30E+00    6.3     0.00082569      -287.9579422890  2.61E-03
    19 Broy./Diag. 0.30E+00    6.5     0.00029513      -287.9591692376 -1.23E-03
    20 Broy./Diag. 0.30E+00    6.3     0.00034869      -287.9651267543 -5.96E-03
    21 Broy./Diag. 0.30E+00    6.5     0.00016714      -287.9670282118 -1.90E-03
    22 Broy./Diag. 0.30E+00    6.3     0.00003137      -287.9670601453 -3.19E-05
    23 Broy./Diag. 0.30E+00    6.6     0.00011373      -287.9669268250  1.33E-04
    24 Broy./Diag. 0.30E+00    6.4     0.00013465      -287.9672122950 -2.85E-04
    25 Broy./Diag. 0.30E+00    6.3     0.00007643      -287.9676788274 -4.67E-04
    26 Broy./Diag. 0.30E+00    6.6     0.00006399      -287.9677249184 -4.61E-05
    27 Broy./Diag. 0.30E+00    6.4     0.00003828      -287.9677728694 -4.80E-05
    28 Broy./Diag. 0.30E+00    6.6     0.00001508      -287.9678250823 -5.22E-05
    29 Broy./Diag. 0.30E+00    6.3     0.00003884      -287.9683282936 -5.03E-04
    30 Broy./Diag. 0.30E+00    6.5     0.00003785      -287.9686457564 -3.17E-04
    31 Broy./Diag. 0.30E+00    6.3     0.00000709      -287.9685010705  1.45E-04
    32 Broy./Diag. 0.30E+00    6.4     0.00000549      -287.9683853314  1.16E-04
    33 Broy./Diag. 0.30E+00    6.6     0.00001602      -287.9683104688  7.49E-05
    34 Broy./Diag. 0.30E+00    6.9     0.00000543      -287.9682959327  1.45E-05
    35 Broy./Diag. 0.30E+00    6.5     0.00000454      -287.9683511941 -5.53E-05
    36 Broy./Diag. 0.30E+00    6.3     0.00000255      -287.9684054105 -5.42E-05
    37 Broy./Diag. 0.30E+00    6.5     0.00000147      -287.9684180430 -1.26E-05
    38 Broy./Diag. 0.30E+00    6.3     0.00000150      -287.9684302517 -1.22E-05
    39 Broy./Diag. 0.30E+00    6.3     0.00000087      -287.9684329629 -2.71E-06

  *** SCF run converged in    39 steps ***


  Electronic density on regular grids:       -319.9999999982        0.0000000018
  Core density on regular grids:              319.9999999278       -0.0000000722
  Total charge density on r-space grids:       -0.0000000704
  Total charge density g-space grids:          -0.0000000704

  Overlap energy of the core charge distribution:               0.00002314443307
  Self energy of the core charge distribution:               -685.99374549079380
  Core Hamiltonian energy:                                    163.80395808428457
  Hartree energy:                                             331.67441586145196
  Exchange-correlation energy:                                -79.83297167009511
  Hartree-Fock Exchange energy:                               -17.17222865859326
  Dispersion energy:                                           -0.44788423357973

  Total energy:                                              -287.96843296289234

   Calculate PDOS at iteration step                                  0

              ---- PDOS: start iteration on the KS states --- 

 *******************************************************************************
 **                                                                           **
 **         ######## #######   #######   ######## #######  ########           **
 **            ##    ##     ## ##     ## ##       ##   ##     ##              **
 **            ##    ##     ## ##     ## ######   #######     ##              **
 **            ##    ##     ## ##     ## ##       ##          ##              **
 **            ##    #######   #######   ##       ##          ##              **
 **                                                                           **
 *******************************************************************************
 
 -------------------------------------------------------------------------------
 -                            TDDFPT Initial Guess                             -
 -------------------------------------------------------------------------------
          State         Occupied      ->      Virtual          Excitation
          number         orbital              orbital          energy (eV)
 -------------------------------------------------------------------------------
             1              160                  161              1.99286
             2              159                  161              2.07069
             3              160                  162              2.12825
             4              159                  162              2.20607
             5              160                  163              2.22372
             6              160                  164              2.26429
             7              159                  163              2.30154
             8              159                  164              2.34212
             9              160                  165              2.35002
            10              159                  165              2.42785
            11              160                  166              2.54644
            12              160                  167              2.58106
            13              159                  166              2.62426
            14              160                  168              2.63315
            15              159                  167              2.65889
            16              160                  169              2.67414
            17              160                  170              2.68688
            18              159                  168              2.71098
            19              160                  171              2.75185
            20              159                  169              2.75197

      Number of active states:                                     158720
 -------------------------------------------------------------------------------
 
 -------------------------------------------------------------------------------
 -                      TDDFPT WAVEFUNCTION OPTIMIZATION                       -
 -------------------------------------------------------------------------------

          Step            Time         Convergence           Conv. states
 -------------------------------------------------------------------------------

    State    Exc. energy (eV)      Convergence (eV)
        1       1.6662260            -3.2663E-01
        2       1.7421432            -3.2854E-01
        3       1.9969527            -1.3130E-01
        4       2.0785386            -1.2754E-01
        5       2.1126699            -1.1105E-01
        6       2.1497297            -1.1456E-01
        7       2.2008163            -1.0073E-01
        8       2.2199041            -1.2221E-01
        9       2.2328104            -1.1721E-01
       10       2.2967338            -1.3111E-01
       11       2.3171161            -2.2932E-01
       12       2.3593064            -2.2176E-01
       13       2.3931388            -2.3112E-01
       14       2.4728005            -1.6035E-01
       15       2.5374468            -1.2144E-01
       16       2.5552206            -1.1892E-01
       17       2.5873359            -9.9546E-02
       18       2.6202087            -9.0768E-02
       19       2.6584496            -9.3396E-02
       20       2.6622767            -8.9690E-02

             1           123.3          1.2074E-02                      0

    State    Exc. energy (eV)      Convergence (eV)
        1       1.6276026            -3.8623E-02
        2       1.7022054            -3.9938E-02
        3       1.9918887            -5.0640E-03
        4       2.0732262            -5.3124E-03
        5       2.0843509            -2.8319E-02
        6       2.1386000            -1.1130E-02
        7       2.1714812            -2.9335E-02
        8       2.1985017            -2.1402E-02
        9       2.2143718            -1.8439E-02
       10       2.2640709            -3.2663E-02
       11       2.2862565            -3.0860E-02
       12       2.3325531            -2.6753E-02
       13       2.3668557            -2.6283E-02
       14       2.4202442            -5.2556E-02
       15       2.4604321            -7.7015E-02
       16       2.5105330            -4.4688E-02
       17       2.5396143            -4.7722E-02
       18       2.5516173            -6.8591E-02
       19       2.5942614            -6.4188E-02
       20       2.5991207            -6.3156E-02

             2           123.6          2.8302E-03                      0

    State    Exc. energy (eV)      Convergence (eV)
        1       1.6211076            -6.4951E-03
        2       1.6948197            -7.3857E-03
        3       1.9915353            -3.5334E-04
        4       2.0727211            -5.0507E-04
        5       2.0809566            -3.3942E-03
        6       2.1374123            -1.1877E-03
        7       2.1671519            -4.3293E-03
        8       2.1940141            -4.4876E-03
        9       2.2111623            -3.2095E-03
       10       2.2590218            -5.0491E-03
       11       2.2816032            -4.6532E-03
       12       2.3283933            -4.1598E-03
       13       2.3620964            -4.7593E-03
       14       2.4064766            -1.3768E-02
       15       2.4372189            -2.3213E-02
       16       2.4681489            -4.2384E-02
       17       2.4735684            -6.6046E-02
       18       2.5455791            -6.0382E-03
       19       2.5479816            -4.6280E-02
       20       2.5797393            -1.9381E-02

[...]
 flops     5 x    18 x    13             19169280       0.0%    100.0%      0.0%
 flops     8 x     2 x    18             43804800       0.0%    100.0%      0.0%
 flops     2 x     8 x    18             43962048       0.0%    100.0%      0.0%
 flops    13 x    18 x    13             49840128       0.0%    100.0%      0.0%
 flops     5 x     5 x    18             74736000       0.0%    100.0%      0.0%
 flops     5 x     1 x     5             77058800       0.0%    100.0%      0.0%
 flops     2 x     2 x    32            108965376       0.0%    100.0%      0.0%
 flops     8 x     8 x    18            186900480       0.0%    100.0%      0.0%
 flops     5 x    13 x    18            191692800       0.0%    100.0%      0.0%
 flops    13 x     5 x    18            191692800       0.0%    100.0%      0.0%
 flops     5 x     1 x    13            200744960       0.0%    100.0%      0.0%
 flops    13 x     1 x     5            200744960       0.0%    100.0%      0.0%
 flops   283 x   111 x    32            412138560       0.0%    100.0%      0.0%
 flops   286 x   111 x    32            416507520       0.0%    100.0%      0.0%
 flops   288 x   111 x    32            419420160       0.0%    100.0%      0.0%
 flops   295 x   111 x    32            429614400       0.0%    100.0%      0.0%
 flops     8 x     2 x    32            467251200       0.0%    100.0%      0.0%
 flops     2 x     8 x    32            468928512       0.0%    100.0%      0.0%
 flops    13 x    13 x    18            506188800       0.0%    100.0%      0.0%
 flops    13 x     1 x    13            521936896       0.0%    100.0%      0.0%
 flops     5 x     5 x    32            797184000       0.0%    100.0%      0.0%
 flops   283 x   113 x    32           1258693440       0.0%    100.0%      0.0%
 flops   286 x   113 x    32           1272036480       0.0%    100.0%      0.0%
 flops   288 x   113 x    32           1280931840       0.0%    100.0%      0.0%
 flops   283 x   116 x    32           1292110080       0.0%    100.0%      0.0%
 flops   286 x   116 x    32           1305807360       0.0%    100.0%      0.0%
 flops   295 x   113 x    32           1312065600       0.0%    100.0%      0.0%
 flops   283 x   118 x    32           1314387840       0.0%    100.0%      0.0%
 flops   288 x   116 x    32           1314938880       0.0%    100.0%      0.0%
 flops   286 x   118 x    32           1328321280       0.0%    100.0%      0.0%
 flops   288 x   118 x    32           1337610240       0.0%    100.0%      0.0%
 flops   295 x   116 x    32           1346899200       0.0%    100.0%      0.0%
 flops   295 x   118 x    32           1370121600       0.0%    100.0%      0.0%
 flops     8 x     8 x    32           1993605120       0.0%    100.0%      0.0%
 flops     5 x    13 x    32           2044723200       0.0%    100.0%      0.0%
 flops    13 x     5 x    32           2044723200       0.0%    100.0%      0.0%
 flops    13 x    13 x    32           5399347200       0.0%    100.0%      0.0%
 flops     2 x    32 x     2           7246356480       0.0%    100.0%      0.0%
 flops     5 x    32 x     5          30767923200       0.0%    100.0%      0.0%
 flops     2 x    32 x     8          31686082560       0.0%    100.0%      0.0%
 flops     8 x    32 x     2          31686082560       0.0%    100.0%      0.0%
 flops     5 x    32 x    13          80153149440       0.0%    100.0%      0.0%
 flops    13 x    32 x     5          80153149440       0.0%    100.0%      0.0%
 flops     8 x    32 x     8         132875550720       0.0%    100.0%      0.0%
 flops    13 x    32 x    13         208398188544       0.0%    100.0%      0.0%
 flops inhomo. stacks                           0       0.0%      0.0%      0.0%
 flops total                       636.048031E+09       0.0%    100.0%      0.0%
 flops max/rank                     27.036861E+09       0.0%    100.0%      0.0%
 matmuls inhomo. stacks                         0       0.0%      0.0%      0.0%
 matmuls total                          210322286       0.0%    100.0%      0.0%
 number of processed stacks               2413800       0.0%    100.0%      0.0%
 average stack size                                     0.0      87.1       0.0
 marketing flops                   647.760314E+09
 -------------------------------------------------------------------------------
 # multiplications                           1647
 max memory usage/rank             878.981120E+06
 # max total images/rank                        5
 # max 3D layers                                1
 # MPI messages exchanged                 2174040
 MPI messages size (bytes):
  total size                       141.461881E+09
  min size                           0.000000E+00
  max size                         176.800000E+03
  average size                      65.068664E+03
 MPI breakdown and total messages size (bytes):
             size <=      128              590112                        0
       128 < size <=     8192               22680                 10882944
      8192 < size <=    32768              424164               8096752512
     32768 < size <=   131072              666564              66143508048
    131072 < size <=  4194304              470520              67198725360
   4194304 < size <= 16777216                   0                        0
  16777216 < size                               0                        0
 -------------------------------------------------------------------------------

 *** WARNING in dbcsr_mm.F:294 :: Using a non-square number of MPI ranks ***
 *** might lead to poor performance. Used ranks: 40 Suggested: 36 81     ***

 -------------------------------------------------------------------------------
 -                                                                             -
 -                      DBCSR MESSAGE PASSING PERFORMANCE                      -
 -                                                                             -
 -------------------------------------------------------------------------------
 ROUTINE             CALLS      AVE VOLUME [Bytes]
 MP_Bcast               49                     12.
 MP_Allreduce         5634                      8.
 MP_Alltoall         51756                  32581.
 MP_ISend           124932                  32094.
 MP_IRecv           131280                  30060.
 -------------------------------------------------------------------------------

 -------------------------------------------------------------------------------
 -                                                                             -
 -                                GRID STATISTICS                              -
 -                                                                             -
 -------------------------------------------------------------------------------
 LP    KERNEL             BACKEND                              COUNT     PERCENT
 1     collocate general  REF                                9722700      16.37%
 3     collocate general  REF                                9556254      16.09%
 3     integrate general  REF                                9483026      15.96%
 0     collocate general  REF                                7968660      13.41%
 2     collocate general  REF                                7931593      13.35%
 2     integrate general  REF                                4991707       8.40%
 4     collocate general  REF                                4892445       8.24%
 4     integrate general  REF                                4854955       8.17%
 -------------------------------------------------------------------------------

 MEMORY| Estimated peak process memory [MiB]                                 839

 -------------------------------------------------------------------------------
 ----                             MULTIGRID INFO                            ----
 -------------------------------------------------------------------------------
 count for grid        1:         222328          cutoff [a.u.]          175.00
 count for grid        2:         200187          cutoff [a.u.]           58.33
 count for grid        3:         186251          cutoff [a.u.]           19.44
 count for grid        4:          73860          cutoff [a.u.]            6.48
 total gridlevel count  :         682626

 -------------------------------------------------------------------------------
 -                                                                             -
 -                         MESSAGE PASSING PERFORMANCE                         -
 -                                                                             -
 -------------------------------------------------------------------------------

 ROUTINE             CALLS      AVE VOLUME [Bytes]
 MP_Group                4
 MP_Bcast              696                1599148.
 MP_Allreduce        26461                    265.
 MP_Sync              1446
 MP_Alltoall          7785               10394443.
 MP_ISendRecv        81120                  63205.
 MP_Wait            162332
 MP_comm_split          72
 MP_ISend            73366                 299667.
 MP_IRecv            74188                 297449.
 MP_Recv               378                 149650.
 -------------------------------------------------------------------------------


 -------------------------------------------------------------------------------
 -                                                                             -
 -                           R E F E R E N C E S                               -
 -                                                                             -
 -------------------------------------------------------------------------------
 
 CP2K version 9.1, the CP2K developers group (2021).
 CP2K is freely available from https://www.cp2k.org/ .

 Kuehne,Thomas D.; Iannuzzi,Marcella; Del Ben,Mauro;
 Rybkin,Vladimir V.; Seewald,Patrick; Stein,Frederick; Laino,Teodoro;
 Khaliullin,Rustam Z.; Schuett,Ole; Schiffmann,Florian; Golze,Dorothea;
 Wilhelm,Jan; Chulkov,Sergey; Bani-Hashemian,Mohammad Hossein;
 Weber,Valery; Borstnik,Urban; Taillefumier,Mathieu;
 Jakobovits,Alice Shoshana; Lazzaro,Alfio; Pabst,Hans; Mueller,Tiziano;
 Schade,Robert; Guidon,Manuel; Andermatt,Samuel; Holmberg,Nico;
 Schenter,Gregory K.; Hehn,Anna; Bussy,Augustin; Belleflamme,Fabian;
 Tabacchi,Gloria; Gloess,Andreas; Lass,Michael; Bethune,Iain;
 Mundy,Christopher J.; Plessl,Christian; Watkins,Matt;
 VandeVondele,Joost; Krack,Matthias; Hutter,Juerg. 
 The Journal of Chemical Physics, 152 (19), (2020). 
 CP2K: An electronic structure and molecular dynamics software package -
 Quickstep: Efficient and accurate electronic structure calculations.
 https://doi.org/10.1063/5.0007045

 Goerigk, Lars; Hansen, Andreas; Bauer, Christoph; Ehrlich, Stephan;
 Najibi, Asim; Grimme, Stefan. , 19 (48), (2017). 
 A look at the density functional theory zoo with the advanced GMTKN55 database
 for general main group thermochemistry, kinetics and noncovalent interactions.
 https://doi.org/10.1039/C7CP04913G

 Schuett, Ole; Messmer, Peter; Hutter, Juerg; VandeVondele, Joost. 
 Electronic Structure Calculations on Graphics Processing Units, John
 Wiley & Sons, Ltd, 173-190 (2016). 
 GPU-Accelerated Sparse Matrix-Matrix Multiplication for
 Linear Scaling Density Functional Theory.
 https://doi.org/10.1002/9781118670712.ch8

 Heinecke, A; Henry, G; Hutchinson, M; Pabst, H. 
 Proceedings of Intl. Supercomputing Conference, 981-991 (2016). 
 LIBXSMM: Accelerating Small Matrix Multiplications
 by Runtime Code Generation.
 https://doi.org/10.1109/SC.2016.83

 Borstnik, U; VandeVondele, J; Weber, V; Hutter, J. 
 PARALLEL COMPUTING, 40 (5-6), 47-58 (2014). 
 Sparse matrix multiplication: The distributed block-compressed sparse
 row library.
 https://doi.org/10.1016/j.parco.2014.03.012

 Hutter, J; Iannuzzi, M; Schiffmann, F; VandeVondele, J. 
 WIREs Comput Mol Sci., 4 (1), 15-25 (2014). 
 CP2K: atomistic simulations of condensed matter systems.
 https://doi.org/10.1002/wcms.1159

 Grimme, S; Ehrlich, S; Goerigk, L. 
 JOURNAL OF COMPUTATIONAL CHEMISTRY, 32, 1456 (2011). 
 Effect of the damping function in dispersion corrected density functional theory.
 https://doi.org/10.1002/jcc.21759

 Guidon, M; Hutter, J; VandeVondele, J. 
 JOURNAL OF CHEMICAL THEORY AND COMPUTATION, 6 (8), 2348-2364 (2010). 
 Auxiliary Density Matrix Methods for Hartree-Fock Exchange Calculations.
 https://doi.org/10.1021/ct1002225

 Grimme, S; Antony, J; Ehrlich, S; Krieg, H. 
 JOURNAL OF CHEMICAL PHYSICS, 132 (15), 154104 (2010). 
 A consistent and accurate ab initio parametrization of density
 functional dispersion correction (DFT-D) for the 94 elements H-Pu.
 https://doi.org/10.1063/1.3382344

 Guidon, M; Hutter, J; VandeVondele, J. 
 JOURNAL OF CHEMICAL THEORY AND COMPUTATION, 5 (11), 3010-3021 (2009). 
 Robust Periodic Hartree-Fock Exchange for Large-Scale Simulations Using
 Gaussian Basis Sets.
 https://doi.org/10.1021/ct900494g

 Guidon, M; Schiffmann, F; Hutter, J; VandeVondele, J. 
 JOURNAL OF CHEMICAL PHYSICS, 128 (21), 214104 (2008). 
 Ab initio molecular dynamics using hybrid density functionals.
 https://doi.org/10.1063/1.2931945

 VandeVondele, J; Hutter, J. 
 JOURNAL OF CHEMICAL PHYSICS, 127 (11), 114105 (2007). 
 Gaussian basis sets for accurate calculations on molecular systems in
 gas and condensed phases.
 https://doi.org/10.1063/1.2770708

 Krack, M. 
 THEORETICAL CHEMISTRY ACCOUNTS, 114 (1-3), 145-152 (2005). 
 Pseudopotentials for H to Kr optimized for gradient-corrected
 exchange-correlation functionals.
 https://doi.org/10.1007/s00214-005-0655-y

 VandeVondele, J; Krack, M; Mohamed, F; Parrinello, M; Chassaing, T;
 Hutter, J. COMPUTER PHYSICS COMMUNICATIONS, 167 (2), 103-128 (2005). 
 QUICKSTEP: Fast and accurate density functional calculations using a
 mixed Gaussian and plane waves approach.
 https://doi.org/10.1016/j.cpc.2004.12.014

 Frigo, M; Johnson, SG. 
 PROCEEDINGS OF THE IEEE, 93 (2), 216-231 (2005). 
 The design and implementation of FFTW3.
 https://doi.org/10.1109/JPROC.2004.840301

 Iannuzzi, M; Chassaing, T; Wallman, T; Hutter, J. 
 CHIMIA, 59 (7-8), 499-503 (2005). 
 Ground and excited state density functional calculations with the
 Gaussian and augmented-plane-wave method.
 https://doi.org/10.2533/000942905777676164

 Martin,Richard L.. 
 The Journal of Chemical Physics, 118 (11), 4775-4777 (2003). 
 Natural transition orbitals.
 https://doi.org/10.1063/1.1558471

 Hartwigsen, C; Goedecker, S; Hutter, J. 
 PHYSICAL REVIEW B, 58 (7), 3641-3662 (1998). 
 Relativistic separable dual-space Gaussian pseudopotentials from H to Rn.
 https://doi.org/10.1103/PhysRevB.58.3641

 Lippert, G; Hutter, J; Parrinello, M. 
 MOLECULAR PHYSICS, 92 (3), 477-487 (1997). 
 A hybrid Gaussian and plane wave density functional scheme.
 https://doi.org/10.1080/002689797170220

 Goedecker, S; Teter, M; Hutter, J. 
 PHYSICAL REVIEW B, 54 (3), 1703-1710 (1996). 
 Separable dual-space Gaussian pseudopotentials.
 https://doi.org/10.1103/PhysRevB.54.1703

 BECKE, AD. PHYSICAL REVIEW A, 38 (6), 3098-3100 (1988). 
 DENSITY-FUNCTIONAL EXCHANGE-ENERGY APPROXIMATION WITH CORRECT
 ASYMPTOTIC-BEHAVIOR.
 https://doi.org/10.1103/PhysRevA.38.3098

 LEE, CT; YANG, WT; PARR, RG. 
 PHYSICAL REVIEW B, 37 (2), 785-789 (1988). 
 DEVELOPMENT OF THE COLLE-SALVETTI CORRELATION-ENERGY FORMULA INTO A
 FUNCTIONAL OF THE ELECTRON-DENSITY.
 https://doi.org/10.1103/PhysRevB.37.785

 VOSKO, SH; WILK, L; NUSAIR, M. 
 CANADIAN JOURNAL OF PHYSICS, 58 (8), 1200-1211 (1980). 
 ACCURATE SPIN-DEPENDENT ELECTRON LIQUID CORRELATION ENERGIES FOR LOCAL
 SPIN-DENSITY CALCULATIONS - A CRITICAL ANALYSIS.
 https://doi.org/10.1139/p80-159


 -------------------------------------------------------------------------------
 -                                                                             -
 -                                T I M I N G                                  -
 -                                                                             -
 -------------------------------------------------------------------------------
 SUBROUTINE                       CALLS  ASD         SELF TIME        TOTAL TIME
                                MAXIMUM       AVERAGE  MAXIMUM  AVERAGE  MAXIMUM
 CP2K                                 1  1.0    0.035    0.053 1662.237 1662.244
 qs_energies                          1  2.0    0.000    0.000 1661.689 1661.696
 qs_energies_properties               1  3.0    0.000    0.000 1367.687 1367.694
 tddfpt                               1  4.0    0.000    0.001 1367.687 1367.694
 tddfpt_davidson_solver               2  5.0    0.002    0.004 1363.148 1363.154
 tddfpt_compute_Aop_evects           11  6.0    0.000    0.000 1358.060 1358.066
 integrate_four_center              259  9.0    0.323    0.695 1205.111 1205.116
 integrate_four_center_main         259 10.0    0.081    0.088 1154.003 1176.321
 integrate_four_center_bin        16576 11.0 1153.922 1176.242 1153.922 1176.242
 tddfpt_apply_hfx                    11  7.0    0.004    0.004  992.782  992.786
 tddft_hfx_matrix                   220  8.0    0.004    0.005  987.633  987.637
 fhxc_kernel                         11  7.0    0.010    0.011  363.838  363.839
 scf_env_do_scf                       1  3.0    0.000    0.000  291.561  292.679
 scf_env_do_scf_inner_loop           39  4.0    0.002    0.007  291.561  292.679
 qs_ks_update_qs_env                 39  5.0    0.000    0.000  264.027  264.028
 rebuild_ks_matrix                   39  6.0    0.000    0.000  264.015  264.017
 qs_ks_build_kohn_sham_matrix        39  7.0    0.005    0.006  264.015  264.017
 hfx_ks_matrix                       39  8.0    0.001    0.001  217.497  217.498
 calculate_rho_elec                 521  8.8    1.039    1.166  183.233  183.240
 pw_transfer                       6714 10.2    0.556    0.698  166.016  166.880
 fft_wrap_pw1pw2                   6196 11.2    0.073    0.084  164.030  164.879
 fft_wrap_pw1pw2_180               3856 12.0   14.212   15.682  156.833  157.352
 fft3d_ps                          6196 13.2   67.769   72.984  120.569  122.357
 integrate_v_rspace                 259  8.2    0.008    0.009  107.188  107.781
 qs_rho_update_rho                  261  7.5    0.002    0.002  105.439  105.444
 density_rs2pw                      521  9.8    0.032    0.036   96.920  104.989
 tddfpt_apply_xc_analytic           440  8.0    1.715    1.936   99.047   99.625
 grid_collocate_task_list           521  9.8   83.650   88.760   83.650   88.760
 rs_pw_transfer                    3121 10.6    0.042    0.052   76.627   85.768
 tddfpt_construct_aux_fit_densi     221  8.0    0.004    0.006   69.214   69.755
 mp_sync                           1446 10.7   45.275   65.809   45.275   65.809
 xc_calc_2nd_deriv_analytical       440  9.0    5.019    5.617   65.280   65.466
 grid_integrate_task_list           259  9.2   57.470   60.735   57.470   60.735
 mp_alltoall_z22v                  6196 15.2   35.941   44.636   35.941   44.636
 potential_pw2rs                    259  9.2    0.041    0.045   43.648   44.236
 rs_pw_transfer_RS2PW_180           522 11.8   18.227   20.678   31.243   40.163
 mp_waitany                       73366 12.6   22.378   34.857   22.378   34.857
 -------------------------------------------------------------------------------

 The number of warnings for this run is : 3
 
 -------------------------------------------------------------------------------
  **** **** ******  **  PROGRAM ENDED AT                 2024-11-11 12:44:34.338
 ***** ** ***  *** **   PROGRAM RAN ON            bc12016.int.ets1.calculquebec.
 **    ****   ******    PROGRAM RAN BY                                  ekadashi
 ***** **    ** ** **   PROGRAM PROCESS ID                               3154658
  **** **  *******  **  PROGRAM STOPPED IN /scratch/ekadashi/Libra_CP2K/SiGe_Het
                                           ero/step2_B3LYP/SET2/job2
