 DBCSR| CPU Multiplication driver                                           XSMM
 DBCSR| Multrec recursion limit                                              512
 DBCSR| Multiplication stack size                                           1000
 DBCSR| Maximum elements for images                                    UNLIMITED
 DBCSR| Multiplicative factor virtual images                                   1
 DBCSR| Use multiplication densification                                       T
 DBCSR| Multiplication size stacks                                             3
 DBCSR| Use memory pool for CPU allocation                                     F
 DBCSR| Number of 3D layers                                               SINGLE
 DBCSR| Use MPI memory allocation                                              F
 DBCSR| Use RMA algorithm                                                      F
 DBCSR| Use Communication thread                                               T
 DBCSR| Communication thread load                                             87
 DBCSR| MPI: My node id                                                        0
 DBCSR| MPI: Number of nodes                                                  40
 DBCSR| OMP: Current number of threads                                         1
 DBCSR| OMP: Max number of threads                                             1
 DBCSR| Split modifier for TAS multiplication algorithm                  1.0E+00


  **** **** ******  **  PROGRAM STARTED AT               2024-11-11 11:19:18.930
 ***** ** ***  *** **   PROGRAM STARTED ON        bc12016.int.ets1.calculquebec.
 **    ****   ******    PROGRAM STARTED BY                              ekadashi
 ***** **    ** ** **   PROGRAM PROCESS ID                               3123401
  **** **  *******  **  PROGRAM STARTED IN /scratch/ekadashi/Libra_CP2K/SiGe_Het
                                           ero/step2_B3LYP/SET2/job2

 CP2K| version string:                                          CP2K version 9.1
 CP2K| source code revision number:                                  git:d8d7100
 CP2K| cp2kflags: omp libint fftw3 libxc parallel mpi3 scalapack xsmm plumed2   
 CP2K| is freely available from                            https://www.cp2k.org/
 CP2K| Program compiled at                       Thu 20 Jan 2022 10:47:29 PM UTC
 CP2K| Program compiled on                           build-node.computecanada.ca
 CP2K| Program compiled for                                   Linux-x86-64-gofbf
 CP2K| Data directory path    /cvmfs/soft.computecanada.ca/easybuild/software/20
 CP2K| Input file name                                       Diag_libra-2009.inp

 GLOBAL| Force Environment number                                              1
 GLOBAL| Basis set file name                                        BASIS_MOLOPT
 GLOBAL| Potential file name                                           POTENTIAL
 GLOBAL| MM Potential file name                                     MM_POTENTIAL
 GLOBAL| Coordinate file name                                     coord-2009.xyz
 GLOBAL| Method name                                                        CP2K
 GLOBAL| Project name                                            Diag_libra-2009
 GLOBAL| Run type                                                         ENERGY
 GLOBAL| FFT library                                                       FFTW3
 GLOBAL| Diagonalization library                                       ScaLAPACK
 GLOBAL| Orthonormality check for eigenvectors                          DISABLED
 GLOBAL| Matrix multiplication library                                 ScaLAPACK
 GLOBAL| All-to-all communication in single precision                          F
 GLOBAL| FFTs using library dependent lengths                                  F
 GLOBAL| Grid backend                                                       AUTO
 GLOBAL| Global print level                                               MEDIUM
 GLOBAL| MPI I/O enabled                                                       T
 GLOBAL| Total number of message passing processes                            40
 GLOBAL| Number of threads for this process                                    1
 GLOBAL| This output is from process                                           0
 GLOBAL| Stack size for threads created by OpenMP (OMP_STACKSIZE)        default
 GLOBAL| CPU model name                 Intel(R) Xeon(R) Gold 6148 CPU @ 2.40GHz
 GLOBAL| CPUID                                                              1003

 MEMORY| system memory details [Kb]
 MEMORY|                        rank 0           min           max       average
 MEMORY| MemTotal            196639208     196639208     196639208     196639208
 MEMORY| MemFree             178865740     178865740     178865740     178865740
 MEMORY| Buffers                    76            76            76            76
 MEMORY| Cached                4829756       4829756       4829756       4829756
 MEMORY| Slab                  1531264       1531264       1531264       1531264
 MEMORY| SReclaimable           344436        344436        344436        344436
 MEMORY| MemLikelyFree       184040008     184040008     184040008     184040008


 *** Fundamental physical constants (SI units) ***

 *** Literature: B. J. Mohr and B. N. Taylor,
 ***             CODATA recommended values of the fundamental physical
 ***             constants: 2006, Web Version 5.1
 ***             http://physics.nist.gov/constants

 Speed of light in vacuum [m/s]                             2.99792458000000E+08
 Magnetic constant or permeability of vacuum [N/A**2]       1.25663706143592E-06
 Electric constant or permittivity of vacuum [F/m]          8.85418781762039E-12
 Planck constant (h) [J*s]                                  6.62606896000000E-34
 Planck constant (h-bar) [J*s]                              1.05457162825177E-34
 Elementary charge [C]                                      1.60217648700000E-19
 Electron mass [kg]                                         9.10938215000000E-31
 Electron g factor [ ]                                     -2.00231930436220E+00
 Proton mass [kg]                                           1.67262163700000E-27
 Fine-structure constant                                    7.29735253760000E-03
 Rydberg constant [1/m]                                     1.09737315685270E+07
 Avogadro constant [1/mol]                                  6.02214179000000E+23
 Boltzmann constant [J/K]                                   1.38065040000000E-23
 Atomic mass unit [kg]                                      1.66053878200000E-27
 Bohr radius [m]                                            5.29177208590000E-11

 *** Conversion factors ***

 [u] -> [a.u.]                                              1.82288848426455E+03
 [Angstrom] -> [Bohr] = [a.u.]                              1.88972613288564E+00
 [a.u.] = [Bohr] -> [Angstrom]                              5.29177208590000E-01
 [a.u.] -> [s]                                              2.41888432650478E-17
 [a.u.] -> [fs]                                             2.41888432650478E-02
 [a.u.] -> [J]                                              4.35974393937059E-18
 [a.u.] -> [N]                                              8.23872205491840E-08
 [a.u.] -> [K]                                              3.15774647902944E+05
 [a.u.] -> [kJ/mol]                                         2.62549961709828E+03
 [a.u.] -> [kcal/mol]                                       6.27509468713739E+02
 [a.u.] -> [Pa]                                             2.94210107994716E+13
 [a.u.] -> [bar]                                            2.94210107994716E+08
 [a.u.] -> [atm]                                            2.90362800883016E+08
 [a.u.] -> [eV]                                             2.72113838565563E+01
 [a.u.] -> [Hz]                                             6.57968392072181E+15
 [a.u.] -> [1/cm] (wave numbers)                            2.19474631370540E+05
 [a.u./Bohr**2] -> [1/cm]                                   5.14048714338585E+03
 

 CELL_TOP| Volume [angstrom^3]:                                      6540.008810
 CELL_TOP| Vector a [angstrom    15.928     0.000     0.000   |a| =    15.927500
 CELL_TOP| Vector b [angstrom    -7.965    13.786     0.000   |b| =    15.921700
 CELL_TOP| Vector c [angstrom    -0.000     0.000    29.784   |c| =    29.783600
 CELL_TOP| Angle (b,c), alpha [degree]:                                89.999800
 CELL_TOP| Angle (a,c), beta  [degree]:                                90.000200
 CELL_TOP| Angle (a,b), gamma [degree]:                               120.015200
 CELL_TOP| Numerically orthorhombic:                                          NO

 GENERATE|  Preliminary Number of Bonds generated:                             0
 GENERATE|  Achieved consistency in connectivity generation.

 CELL| Volume [angstrom^3]:                                          6540.008810
 CELL| Vector a [angstrom]:      15.928     0.000     0.000   |a| =    15.927500
 CELL| Vector b [angstrom]:      -7.965    13.786     0.000   |b| =    15.921700
 CELL| Vector c [angstrom]:      -0.000     0.000    29.784   |c| =    29.783600
 CELL| Angle (b,c), alpha [degree]:                                    89.999800
 CELL| Angle (a,c), beta  [degree]:                                    90.000200
 CELL| Angle (a,b), gamma [degree]:                                   120.015200
 CELL| Numerically orthorhombic:                                              NO

 CELL_REF| Volume [angstrom^3]:                                      6540.008810
 CELL_REF| Vector a [angstrom    15.928     0.000     0.000   |a| =    15.927500
 CELL_REF| Vector b [angstrom    -7.965    13.786     0.000   |b| =    15.921700
 CELL_REF| Vector c [angstrom    -0.000     0.000    29.784   |c| =    29.783600
 CELL_REF| Angle (b,c), alpha [degree]:                                89.999800
 CELL_REF| Angle (a,c), beta  [degree]:                                90.000200
 CELL_REF| Angle (a,b), gamma [degree]:                               120.015200
 CELL_REF| Numerically orthorhombic:                                          NO

 *******************************************************************************
 *******************************************************************************
 **                                                                           **
 **     #####                         ##              ##                      **
 **    ##   ##            ##          ##              ##                      **
 **   ##     ##                       ##            ######                    **
 **   ##     ##  ##   ##  ##   #####  ##  ##   ####   ##    #####    #####    **
 **   ##     ##  ##   ##  ##  ##      ## ##   ##      ##   ##   ##  ##   ##   **
 **   ##  ## ##  ##   ##  ##  ##      ####     ###    ##   ######   ######    **
 **    ##  ###   ##   ##  ##  ##      ## ##      ##   ##   ##       ##        **
 **     #######   #####   ##   #####  ##  ##  ####    ##    #####   ##        **
 **           ##                                                    ##        **
 **                                                                           **
 **                                                ... make the atoms dance   **
 **                                                                           **
 **            Copyright (C) by CP2K developers group (2000-2021)             **
 **                      J. Chem. Phys. 152, 194103 (2020)                    **
 **                                                                           **
 *******************************************************************************

 DFT| Spin restricted Kohn-Sham (RKS) calculation                            RKS
 DFT| Multiplicity                                                             1
 DFT| Number of spin states                                                    1
 DFT| Charge                                                                   0
 DFT| Self-interaction correction (SIC)                                       NO
 DFT| Cutoffs: density                                              1.000000E-10
 DFT|          gradient                                             1.000000E-10
 DFT|          tau                                                  1.000000E-10
 DFT|          cutoff_smoothing_range                               0.000000E+00
 DFT| XC density smoothing                                                  NONE
 DFT| XC derivatives                                                          PW
 FUNCTIONAL| ROUTINE=NEW
 FUNCTIONAL| BECKE88:
 FUNCTIONAL| A. Becke, Phys. Rev. A 38, 3098 (1988) {LDA version}               
 FUNCTIONAL| LYP:
 FUNCTIONAL| C. Lee, W. Yang, R.G. Parr, Phys. Rev. B, 37, 785 (1988) {LDA versi
 FUNCTIONAL| on}                                                                
 FUNCTIONAL| VWN:
 FUNCTIONAL| S. H. Vosko, L. Wilk and M. Nusair, Can. J. Phys. 58, 1200 (1980) {
 FUNCTIONAL| LDA version}                                                       
 FUNCTIONAL| XALPHA:
 FUNCTIONAL| Dirac/Slater local exchange; parameter=  0.666 {LDA}               
 vdW POTENTIAL|                                                   Pair Potential
 vdW POTENTIAL|          DFT-D3 (Version 3.1)
 vdW POTENTIAL|          Potential Form: S. Grimme et al, JCP 132: 154104 (2010)
 vdW POTENTIAL|          Zero Damping
 vdW POTENTIAL|          Cutoff Radius [Bohr]:                             20.00
 vdW POTENTIAL|          s6 Scaling Factor:                               1.0000
 vdW POTENTIAL|          sr6 Scaling Factor:                              1.2610
 vdW POTENTIAL|          s8 Scaling Factor:                               1.7030
 vdW POTENTIAL|          Cutoff for CN calculation:                   0.1000E-05

 QS| Method:                                                                 GPW
 QS| Density plane wave grid type                        NON-SPHERICAL FULLSPACE
 QS| Number of grid levels:                                                    4
 QS| Density cutoff [a.u.]:                                                175.0
 QS| Multi grid cutoff [a.u.]: 1) grid level                               175.0
 QS|                           2) grid level                                58.3
 QS|                           3) grid level                                19.4
 QS|                           4) grid level                                 6.5
 QS| Grid level progression factor:                                          3.0
 QS| Relative density cutoff [a.u.]:                                        25.0
 QS| Interaction thresholds: eps_pgf_orb:                                1.0E-05
 QS|                         eps_filter_matrix:                          0.0E+00
 QS|                         eps_core_charge:                            1.0E-12
 QS|                         eps_rho_gspace:                             1.0E-10
 QS|                         eps_rho_rspace:                             1.0E-10
 QS|                         eps_gvg_rspace:                             1.0E-05
 QS|                         eps_ppl:                                    1.0E-02
 QS|                         eps_ppnl:                                   1.0E-07


 ATOMIC KIND INFORMATION

  1. Atomic kind: Si                                    Number of atoms:      32

     Orbital Basis Set                                     DZVP-MOLOPT-SR-GTH-q4

       Number of orbital shell sets:                                           1
       Number of orbital shells:                                               5
       Number of primitive Cartesian functions:                                4
       Number of Cartesian basis functions:                                   14
       Number of spherical basis functions:                                   13
       Norm type:                                                              2

       Normalised Cartesian orbitals:

                        Set   Shell   Orbital            Exponent    Coefficient

                          1       1    2s                1.256768       0.294045
                                                         0.506394      -0.015884
                                                         0.238884      -0.207657
                                                         0.087337      -0.036225

                          1       2    3s                1.256768      -1.532347
                                                         0.506394       0.524539
                                                         0.238884       0.025013
                                                         0.087337      -0.052203

                          1       3    3px               1.256768       0.152274
                                                         0.506394      -0.154145
                                                         0.238884      -0.115581
                                                         0.087337      -0.028372
                          1       3    3py               1.256768       0.152274
                                                         0.506394      -0.154145
                                                         0.238884      -0.115581
                                                         0.087337      -0.028372
                          1       3    3pz               1.256768       0.152274
                                                         0.506394      -0.154145
                                                         0.238884      -0.115581
                                                         0.087337      -0.028372

                          1       4    4px               1.256768       0.313378
                                                         0.506394      -0.415360
                                                         0.238884      -0.022539
                                                         0.087337       0.078473
                          1       4    4py               1.256768       0.313378
                                                         0.506394      -0.415360
                                                         0.238884      -0.022539
                                                         0.087337       0.078473
                          1       4    4pz               1.256768       0.313378
                                                         0.506394      -0.415360
                                                         0.238884      -0.022539
                                                         0.087337       0.078473

                          1       5    4dx2              1.256768       0.325879
                                                         0.506394       0.163831
                                                         0.238884       0.044076
                                                         0.087337       0.010608
                          1       5    4dxy              1.256768       0.564439
                                                         0.506394       0.283764
                                                         0.238884       0.076342
                                                         0.087337       0.018373
                          1       5    4dxz              1.256768       0.564439
                                                         0.506394       0.283764
                                                         0.238884       0.076342
                                                         0.087337       0.018373
                          1       5    4dy2              1.256768       0.325879
                                                         0.506394       0.163831
                                                         0.238884       0.044076
                                                         0.087337       0.010608
                          1       5    4dyz              1.256768       0.564439
                                                         0.506394       0.283764
                                                         0.238884       0.076342
                                                         0.087337       0.018373
                          1       5    4dz2              1.256768       0.325879
                                                         0.506394       0.163831
                                                         0.238884       0.044076
                                                         0.087337       0.010608

     Auxiliary Fit Basis Set                                               cFIT3

       Number of orbital shell sets:                                           4
       Number of orbital shells:                                               4
       Number of primitive Cartesian functions:                                6
       Number of Cartesian basis functions:                                    8
       Number of spherical basis functions:                                    8
       Norm type:                                                              2

       Normalised Cartesian orbitals:

                        Set   Shell   Orbital            Exponent    Coefficient

                          1       1    1s                0.096480       0.123378

                          2       1    1s                0.246960      -0.309315
                                                         1.277560       0.429908

                          3       1    1px               0.089490       0.069768
                          3       1    1py               0.089490       0.069768
                          3       1    1pz               0.089490       0.069768

                          4       1    1px               0.295630       0.313983
                                                         2.202470      -0.124968
                          4       1    1py               0.295630       0.313983
                                                         2.202470      -0.124968
                          4       1    1pz               0.295630       0.313983
                                                         2.202470      -0.124968

       Atomic covalent radius [Angstrom]:                                  1.110

       Atomic van der Waals radius [Angstrom]:                             2.100

     GTH Potential information for                                       GTH-PBE

       Description:                       Goedecker-Teter-Hutter pseudopotential
                                           Goedecker et al., PRB 54, 1703 (1996)
                                          Hartwigsen et al., PRB 58, 3641 (1998)
                                                      Krack, TCA 114, 145 (2005)

       Gaussian exponent of the core charge distribution:               2.582645
       Electronic configuration (s p d ...):                               2   2

       Parameters of the local part of the GTH pseudopotential:

                          rloc        C1          C2          C3          C4
                        0.440000   -6.269288

       Parameters of the non-local part of the GTH pseudopotential:

                   l      r(l)      h(i,j,l)

                   0    0.435634    8.951742   -2.706271
                                   -2.706271    3.493781
                   1    0.497942    2.431277

  2. Atomic kind: H                                     Number of atoms:      64

     Orbital Basis Set                                     DZVP-MOLOPT-SR-GTH-q1

       Number of orbital shell sets:                                           1
       Number of orbital shells:                                               3
       Number of primitive Cartesian functions:                                5
       Number of Cartesian basis functions:                                    5
       Number of spherical basis functions:                                    5
       Norm type:                                                              2

       Normalised Cartesian orbitals:

                        Set   Shell   Orbital            Exponent    Coefficient

                          1       1    2s               10.068468      -0.133023
                                                         2.680223      -0.177618
                                                         0.791502      -0.258419
                                                         0.239116      -0.107525
                                                         0.082193      -0.014019

                          1       2    3s               10.068468       0.344673
                                                         2.680223       1.819821
                                                         0.791502      -0.999069
                                                         0.239116       0.017430
                                                         0.082193       0.082660

                          1       3    3px              10.068468       0.155326
                                                         2.680223       0.367157
                                                         0.791502       0.311480
                                                         0.239116       0.080105
                                                         0.082193       0.033440
                          1       3    3py              10.068468       0.155326
                                                         2.680223       0.367157
                                                         0.791502       0.311480
                                                         0.239116       0.080105
                                                         0.082193       0.033440
                          1       3    3pz              10.068468       0.155326
                                                         2.680223       0.367157
                                                         0.791502       0.311480
                                                         0.239116       0.080105
                                                         0.082193       0.033440

     Auxiliary Fit Basis Set                                               cFIT3

       Number of orbital shell sets:                                           2
       Number of orbital shells:                                               2
       Number of primitive Cartesian functions:                                3
       Number of Cartesian basis functions:                                    2
       Number of spherical basis functions:                                    2
       Norm type:                                                              2

       Normalised Cartesian orbitals:

                        Set   Shell   Orbital            Exponent    Coefficient

                          1       1    1s                0.113290       0.139173

                          2       1    1s                0.551250       0.404894
                                                         3.585030       0.334062

       Atomic covalent radius [Angstrom]:                                  0.320

       Atomic van der Waals radius [Angstrom]:                             1.090

     GTH Potential information for                                       GTH-PBE

       Description:                       Goedecker-Teter-Hutter pseudopotential
                                           Goedecker et al., PRB 54, 1703 (1996)
                                          Hartwigsen et al., PRB 58, 3641 (1998)
                                                      Krack, TCA 114, 145 (2005)

       Gaussian exponent of the core charge distribution:              12.500000
       Electronic configuration (s p d ...):                                   1

       Parameters of the local part of the GTH pseudopotential:

                          rloc        C1          C2          C3          C4
                        0.200000   -4.178900    0.724463

  3. Atomic kind: Ge                                    Number of atoms:      32

     Orbital Basis Set                                     DZVP-MOLOPT-SR-GTH-q4

       Number of orbital shell sets:                                           1
       Number of orbital shells:                                               5
       Number of primitive Cartesian functions:                                4
       Number of Cartesian basis functions:                                   14
       Number of spherical basis functions:                                   13
       Norm type:                                                              2

       Normalised Cartesian orbitals:

                        Set   Shell   Orbital            Exponent    Coefficient

                          1       1    2s                3.751626      -0.120003
                                                         1.419172       0.428185
                                                         0.322428      -0.228255
                                                         0.110740      -0.068975

                          1       2    3s                3.751626       0.273885
                                                         1.419172      -0.836040
                                                         0.322428       0.584240
                                                         0.110740      -0.261045

                          1       3    3px               3.751626       0.064521
                                                         1.419172       0.216179
                                                         0.322428      -0.253385
                                                         0.110740      -0.035002
                          1       3    3py               3.751626       0.064521
                                                         1.419172       0.216179
                                                         0.322428      -0.253385
                                                         0.110740      -0.035002
                          1       3    3pz               3.751626       0.064521
                                                         1.419172       0.216179
                                                         0.322428      -0.253385
                                                         0.110740      -0.035002

                          1       4    4px               3.751626      -0.201632
                                                         1.419172      -0.391570
                                                         0.322428       0.486065
                                                         0.110740      -0.127990
                          1       4    4py               3.751626      -0.201632
                                                         1.419172      -0.391570
                                                         0.322428       0.486065
                                                         0.110740      -0.127990
                          1       4    4pz               3.751626      -0.201632
                                                         1.419172      -0.391570
                                                         0.322428       0.486065
                                                         0.110740      -0.127990

                          1       5    4dx2              3.751626      -0.158822
                                                         1.419172       0.193543
                                                         0.322428       0.178643
                                                         0.110740       0.009408
                          1       5    4dxy              3.751626      -0.275088
                                                         1.419172       0.335227
                                                         0.322428       0.309418
                                                         0.110740       0.016296
                          1       5    4dxz              3.751626      -0.275088
                                                         1.419172       0.335227
                                                         0.322428       0.309418
                                                         0.110740       0.016296
                          1       5    4dy2              3.751626      -0.158822
                                                         1.419172       0.193543
                                                         0.322428       0.178643
                                                         0.110740       0.009408
                          1       5    4dyz              3.751626      -0.275088
                                                         1.419172       0.335227
                                                         0.322428       0.309418
                                                         0.110740       0.016296
                          1       5    4dz2              3.751626      -0.158822
                                                         1.419172       0.193543
                                                         0.322428       0.178643
                                                         0.110740       0.009408

     Auxiliary Fit Basis Set                                               cFIT6

       Number of orbital shell sets:                                           4
       Number of orbital shells:                                               4
       Number of primitive Cartesian functions:                                6
       Number of Cartesian basis functions:                                    8
       Number of spherical basis functions:                                    8
       Norm type:                                                              2

       Normalised Cartesian orbitals:

                        Set   Shell   Orbital            Exponent    Coefficient

                          1       1    1s                0.110750       0.136826

                          2       1    1s                0.308366      -0.415436
                                                         1.178430       0.610195

                          3       1    1px               0.110745       0.091064
                          3       1    1py               0.110745       0.091064
                          3       1    1pz               0.110745       0.091064

                          4       1    1px               0.339941       0.397306
                                                         1.591237      -0.423312
                          4       1    1py               0.339941       0.397306
                                                         1.591237      -0.423312
                          4       1    1pz               0.339941       0.397306
                                                         1.591237      -0.423312

       Atomic covalent radius [Angstrom]:                                  1.220

       Atomic van der Waals radius [Angstrom]:                             2.110

     GTH Potential information for                                       GTH-PBE

       Description:                       Goedecker-Teter-Hutter pseudopotential
                                           Goedecker et al., PRB 54, 1703 (1996)
                                          Hartwigsen et al., PRB 58, 3641 (1998)
                                                      Krack, TCA 114, 145 (2005)

       Gaussian exponent of the core charge distribution:               1.714678
       Electronic configuration (s p d ...):                               2   2

       Parameters of the local part of the GTH pseudopotential:

                          rloc        C1          C2          C3          C4
                        0.540000

       Parameters of the non-local part of the GTH pseudopotential:

                   l      r(l)      h(i,j,l)

                   0    0.421865    7.510241   -0.588108   -1.447976
                                   -0.588108   -1.595888    3.738657
                                   -1.447976    3.738657   -2.967467
                   1    0.567529    0.913860    0.546875
                                    0.546875   -0.647072
                   2    0.813914    0.197177


 MOLECULE KIND INFORMATION


 All atoms are their own molecule, skipping detailed information


 TOTAL NUMBERS AND MAXIMUM NUMBERS

  Total number of            - Atomic kinds:                                   3
                             - Atoms:                                        128
                             - Shell sets:                                   128
                             - Shells:                                       512
                             - Primitive Cartesian functions:                576
                             - Cartesian basis functions:                   1216
                             - Spherical basis functions:                   1152

  Maximum angular momentum of- Orbital basis functions:                        2
                             - Local part of the GTH pseudopotential:          2
                             - Non-local part of the GTH pseudopotential:      4

  AUX_FIT ADMM-Basis: 
  Total number of            - Shell sets:                                   384
                             - Shells:                                       384
                             - Primitive Cartesian functions:                576
                             - Cartesian basis functions:                    640
                             - Spherical basis functions:                    640
                               Maximum angular momentum                        1


 MODULE QUICKSTEP:  ATOMIC COORDINATES IN angstrom

 Atom  Kind  Element       X           Y           Z          Z(eff)       Mass
    1   1 Si  14       0.279540    2.346133    1.844986       4.0000     28.0855
    2   1 Si  14       2.212504    1.110370    2.350468       4.0000     28.0855
    3   1 Si  14       4.066622    2.270465    1.544156       4.0000     28.0855
    4   1 Si  14       6.011091    1.163672    2.346196       4.0000     28.0855
    5   1 Si  14      -1.870256    5.686538    1.860172       4.0000     28.0855
    6   1 Si  14       0.081988    4.521259    2.658041       4.0000     28.0855
    7   1 Si  14       1.979442    5.815350    1.839774       4.0000     28.0855
    8   1 Si  14       4.085288    4.604413    2.333997       4.0000     28.0855
    9   2 H    1       0.489286    2.594789    0.374105       1.0000      1.0079
   10   2 H    1       2.349602    0.926944    3.815421       1.0000      1.0079
   11   2 H    1       1.802105    3.431973    5.382233       1.0000      1.0079
   12   2 H    1       3.685105    2.334676    8.945347       1.0000      1.0079
   13   2 H    1       4.077308    2.298183    0.018073       1.0000      1.0079
   14   2 H    1       5.669340    0.788749    3.778830       1.0000      1.0079
   15   2 H    1      -1.639238    3.483794    5.008177       1.0000      1.0079
   16   2 H    1      -0.296101    2.855307    9.258384       1.0000      1.0079
   17   2 H    1      -1.726647    5.480691    0.403723       1.0000      1.0079
   18   2 H    1       0.172759    4.504003    4.121067       1.0000      1.0079
   19   2 H    1       4.035033    0.015757    5.104449       1.0000      1.0079
   20   2 H    1       1.765730    6.062483    9.094290       1.0000      1.0079
   21   2 H    1       1.804743    5.881184    0.393001       1.0000      1.0079
   22   2 H    1       4.276235    4.468004    3.801403       1.0000      1.0079
   23   2 H    1       0.130860    0.253778    5.638245       1.0000      1.0079
   24   2 H    1      -2.256891    6.039260    8.722174       1.0000      1.0079
   25   3 Ge  32       1.859933    3.657278    6.846071       4.0000     72.6400
   26   3 Ge  32       3.874869    2.387297    7.381950       4.0000     72.6400
   27   3 Ge  32      -1.946345    3.422346    6.553938       4.0000     72.6400
   28   3 Ge  32      -0.121262    2.610505    7.806663       4.0000     72.6400
   29   3 Ge  32       3.964228    0.076770    6.657719       4.0000     72.6400
   30   3 Ge  32       1.780115    5.962576    7.562555       4.0000     72.6400
   31   3 Ge  32       0.044292    0.251575    7.160290       4.0000     72.6400
   32   3 Ge  32      -2.202311    5.776826    7.238631       4.0000     72.6400
   33   1 Si  14       8.064695    2.290859    1.776968       4.0000     28.0855
   34   1 Si  14      10.079177    1.148000    2.294199       4.0000     28.0855
   35   1 Si  14      12.177965    2.297253    1.808587       4.0000     28.0855
   36   1 Si  14      14.229081    1.201580    2.436905       4.0000     28.0855
   37   1 Si  14       6.147085    5.743435    1.647379       4.0000     28.0855
   38   1 Si  14       8.159367    4.636694    2.454073       4.0000     28.0855
   39   1 Si  14      10.044608    5.743163    1.631104       4.0000     28.0855
   40   1 Si  14      11.974538    4.556561    2.305043       4.0000     28.0855
   41   2 H    1       7.904070    2.616348    0.251772       1.0000      1.0079
   42   2 H    1       9.940106    1.000286    3.831997       1.0000      1.0079
   43   2 H    1       9.421042    3.167846    5.175705       1.0000      1.0079
   44   2 H    1      12.093534    2.049123    8.741037       1.0000      1.0079
   45   2 H    1      12.123743    2.243141    0.300758       1.0000      1.0079
   46   2 H    1      14.172405    0.856377    3.877316       1.0000      1.0079
   47   2 H    1       6.230313    3.405653    5.201535       1.0000      1.0079
   48   2 H    1       7.930304    2.403511    9.143627       1.0000      1.0079
   49   2 H    1       6.271857    5.848276    0.141614       1.0000      1.0079
   50   2 H    1       8.015611    4.703614    3.946657       1.0000      1.0079
   51   2 H    1      12.467220   -0.799748    5.325580       1.0000      1.0079
   52   2 H    1      10.155654    5.850655    8.716270       1.0000      1.0079
   53   2 H    1       9.868070    5.468598    0.182684       1.0000      1.0079
   54   2 H    1      11.983484    4.573104    3.805814       1.0000      1.0079
   55   2 H    1       7.969814    0.107798    5.102348       1.0000      1.0079
   56   2 H    1       5.860436    6.040456    8.987353       1.0000      1.0079
   57   3 Ge  32       9.969907    3.242597    6.618798       4.0000     72.6400
   58   3 Ge  32      12.109323    2.106720    7.214973       4.0000     72.6400
   59   3 Ge  32       6.074903    3.263586    6.737207       4.0000     72.6400
   60   3 Ge  32       8.063938    2.243687    7.628950       4.0000     72.6400
   61   3 Ge  32      12.217206   -0.349095    6.818045       4.0000     72.6400
   62   3 Ge  32       9.756746    5.626837    7.281281       4.0000     72.6400
   63   3 Ge  32       7.939085   -0.003686    6.689197       4.0000     72.6400
   64   3 Ge  32       5.868900    5.675006    7.498264       4.0000     72.6400
   65   1 Si  14      -3.829480    9.159047    1.499935       4.0000     28.0855
   66   1 Si  14      -1.793572    8.086372    2.318517       4.0000     28.0855
   67   1 Si  14       0.149211    9.210100    1.517776       4.0000     28.0855
   68   1 Si  14       2.226768    8.248343    2.152921       4.0000     28.0855
   69   1 Si  14      -5.854517   12.652095    1.423069       4.0000     28.0855
   70   1 Si  14      -3.929655   11.451060    2.112065       4.0000     28.0855
   71   1 Si  14      -1.795431   12.713031    1.524359       4.0000     28.0855
   72   1 Si  14       0.159547   11.546535    2.271498       4.0000     28.0855
   73   2 H    1      -4.064977    8.824305    0.017190       1.0000      1.0079
   74   2 H    1      -1.950073    8.302429    3.785184       1.0000      1.0079
   75   2 H    1      -1.648862   10.460347    5.019485       1.0000      1.0079
   76   2 H    1      -0.420355    8.856247    9.093670       1.0000      1.0079
   77   2 H    1      -0.072078    9.409368    0.093149       1.0000      1.0079
   78   2 H    1       2.127671    8.368822    3.712603       1.0000      1.0079
   79   2 H    1      -6.723433   10.458777    5.525902       1.0000      1.0079
   80   2 H    1      -3.889511    8.842873    8.631019       1.0000      1.0079
   81   2 H    1      -5.875432   12.873735   -0.017244       1.0000      1.0079
   82   2 H    1      -3.982040   11.101607    3.593961       1.0000      1.0079
   83   2 H    1       0.088114    7.532582    5.040464       1.0000      1.0079
   84   2 H    1      -2.205957   12.634374    8.861571       1.0000      1.0079
   85   2 H    1      -1.962735   12.628832    0.004970       1.0000      1.0079
   86   2 H    1       0.275306   11.697791    3.752192       1.0000      1.0079
   87   2 H    1      -4.138554    6.667437    4.797254       1.0000      1.0079
   88   2 H    1      -5.521290   12.641941    9.194076       1.0000      1.0079
   89   3 Ge  32      -2.061497   10.303618    6.564062       4.0000     72.6400
   90   3 Ge  32      -0.255410    9.092638    7.568594       4.0000     72.6400
   91   3 Ge  32      -6.216113   10.222508    6.926571       4.0000     72.6400
   92   3 Ge  32      -4.085032    9.052180    7.168905       4.0000     72.6400
   93   3 Ge  32      -0.261203    6.980620    6.447532       4.0000     72.6400
   94   3 Ge  32      -2.035937   12.681143    7.357354       4.0000     72.6400
   95   3 Ge  32      -4.183879    6.818871    6.299151       4.0000     72.6400
   96   3 Ge  32      -5.923324   12.717658    7.721054       4.0000     72.6400
   97   1 Si  14       4.204302    9.257814    1.289253       4.0000     28.0855
   98   1 Si  14       6.045388    8.052183    2.188231       4.0000     28.0855
   99   1 Si  14       8.067087    9.033223    1.444899       4.0000     28.0855
  100   1 Si  14      10.101242    8.092152    2.267952       4.0000     28.0855
  101   1 Si  14       2.066843   12.628875    1.428266       4.0000     28.0855
  102   1 Si  14       4.213494   11.533822    2.000532       4.0000     28.0855
  103   1 Si  14       6.230485   12.667739    1.401025       4.0000     28.0855
  104   1 Si  14       8.120392   11.344503    1.967813       4.0000     28.0855
  105   2 H    1       4.058884    9.118211   -0.231441       1.0000      1.0079
  106   2 H    1       5.890394    8.265932    3.748356       1.0000      1.0079
  107   2 H    1       6.105631   10.161555    5.854991       1.0000      1.0079
  108   2 H    1       8.107582    9.136717    9.732942       1.0000      1.0079
  109   2 H    1       8.094935    8.791145   -0.056286       1.0000      1.0079
  110   2 H    1      10.017586    8.085980    3.735814       1.0000      1.0079
  111   2 H    1       1.907493   10.077784    5.398549       1.0000      1.0079
  112   2 H    1       3.512367    8.932563    9.207668       1.0000      1.0079
  113   2 H    1       2.023013   12.759052   -0.047349       1.0000      1.0079
  114   2 H    1       4.269644   11.291654    3.496918       1.0000      1.0079
  115   2 H    1       8.103500    7.626924    5.491578       1.0000      1.0079
  116   2 H    1       6.174273   12.837989    9.557759       1.0000      1.0079
  117   2 H    1       6.403399   12.890937   -0.044034       1.0000      1.0079
  118   2 H    1       8.144696   11.225079    3.503383       1.0000      1.0079
  119   2 H    1       3.879621    6.791397    5.273271       1.0000      1.0079
  120   2 H    1       2.162165   12.605230    9.019857       1.0000      1.0079
  121   3 Ge  32       6.019188   10.350621    7.394233       4.0000     72.6400
  122   3 Ge  32       7.915208    9.001834    8.238486       4.0000     72.6400
  123   3 Ge  32       1.788361   10.188029    6.922329       4.0000     72.6400
  124   3 Ge  32       3.863096    9.076197    7.710731       4.0000     72.6400
  125   3 Ge  32       7.791422    6.910170    6.828449       4.0000     72.6400
  126   3 Ge  32       6.227195   12.630175    8.019669       4.0000     72.6400
  127   3 Ge  32       3.884609    6.891367    6.853237       4.0000     72.6400
  128   3 Ge  32       2.058520   12.613198    7.483493       4.0000     72.6400




 SCF PARAMETERS         Density guess:                                   RESTART
                        --------------------------------------------------------
                        max_scf:                                              50
                        max_scf_history:                                       0
                        max_diis:                                              4
                        --------------------------------------------------------
                        eps_scf:                                        1.00E-06
                        eps_scf_history:                                0.00E+00
                        eps_diis:                                       1.00E-01
                        eps_eigval:                                     1.00E-05
                        --------------------------------------------------------
                        level_shift [a.u.]:                                 0.00
                        added MOs                                        50    0
                        --------------------------------------------------------
                        Mixing method:                            BROYDEN_MIXING
                                                charge density mixing in g-space
                        --------------------------------------------------------
                        No outer SCF

 PW_GRID| Information for grid number                                          1
 PW_GRID| Grid distributed over                                    40 processors
 PW_GRID| Real space group dimensions                                    40    1
 PW_GRID| the grid is blocked:                                                NO
 PW_GRID| Cutoff [a.u.]                                                    175.0
 PW_GRID| spherical cutoff:                                                   NO
 PW_GRID|   Bounds   1            -90      89                Points:         180
 PW_GRID|   Bounds   2            -90      89                Points:         180
 PW_GRID|   Bounds   3           -180     179                Points:         360
 PW_GRID| Volume element (a.u.^3)  0.3784E-02     Volume (a.u.^3)     44134.1676
 PW_GRID| Grid span                                                    FULLSPACE
 PW_GRID|   Distribution                         Average         Max         Min
 PW_GRID|   G-Vectors                           291600.0      291600      291600
 PW_GRID|   G-Rays                                1620.0        1620        1620
 PW_GRID|   Real Space Points                   291600.0      324000      259200

 PW_GRID| Information for grid number                                          2
 PW_GRID| Number of the reference grid                                         1
 PW_GRID| Grid distributed over                                    40 processors
 PW_GRID| Real space group dimensions                                    40    1
 PW_GRID| the grid is blocked:                                                NO
 PW_GRID| Cutoff [a.u.]                                                     58.3
 PW_GRID| spherical cutoff:                                                   NO
 PW_GRID|   Bounds   1            -54      53                Points:         108
 PW_GRID|   Bounds   2            -54      53                Points:         108
 PW_GRID|   Bounds   3           -100      99                Points:         200
 PW_GRID| Volume element (a.u.^3)  0.1892E-01     Volume (a.u.^3)     44134.1676
 PW_GRID| Grid span                                                    FULLSPACE
 PW_GRID|   Distribution                         Average         Max         Min
 PW_GRID|   G-Vectors                            58320.0       59724       57024
 PW_GRID|   G-Rays                                 540.0         553         528
 PW_GRID|   Real Space Points                    58320.0       64800       43200

 PW_GRID| Information for grid number                                          3
 PW_GRID| Number of the reference grid                                         1
 PW_GRID| Grid distributed over                                    40 processors
 PW_GRID| Real space group dimensions                                    40    1
 PW_GRID| the grid is blocked:                                                NO
 PW_GRID| Cutoff [a.u.]                                                     19.4
 PW_GRID| spherical cutoff:                                                   NO
 PW_GRID|   Bounds   1            -30      29                Points:          60
 PW_GRID|   Bounds   2            -30      29                Points:          60
 PW_GRID|   Bounds   3            -60      59                Points:         120
 PW_GRID| Volume element (a.u.^3)  0.1022         Volume (a.u.^3)     44134.1676
 PW_GRID| Grid span                                                    FULLSPACE
 PW_GRID|   Distribution                         Average         Max         Min
 PW_GRID|   G-Vectors                            10800.0       11040       10380
 PW_GRID|   G-Rays                                 180.0         184         173
 PW_GRID|   Real Space Points                    10800.0       14400        7200

 PW_GRID| Information for grid number                                          4
 PW_GRID| Number of the reference grid                                         1
 PW_GRID| Grid distributed over                                    40 processors
 PW_GRID| Real space group dimensions                                     5    8
 PW_GRID| the grid is blocked:                                                NO
 PW_GRID| Cutoff [a.u.]                                                      6.5
 PW_GRID| spherical cutoff:                                                   NO
 PW_GRID|   Bounds   1            -18      17                Points:          36
 PW_GRID|   Bounds   2            -18      17                Points:          36
 PW_GRID|   Bounds   3            -36      35                Points:          72
 PW_GRID| Volume element (a.u.^3)  0.4730         Volume (a.u.^3)     44134.1676
 PW_GRID| Grid span                                                    FULLSPACE
 PW_GRID|   Distribution                         Average         Max         Min
 PW_GRID|   G-Vectors                             2332.8        2520        2160
 PW_GRID|   G-Rays                                  64.8          70          60
 PW_GRID|   Real Space Points                     2332.8        2880        2016

 POISSON| Solver                                                        PERIODIC
 POISSON| Periodicity                                                        XYZ

 RS_GRID| Information for grid number                                          1
 RS_GRID|   Bounds   1            -90      89                Points:         180
 RS_GRID|   Bounds   2            -90      89                Points:         180
 RS_GRID|   Bounds   3           -180     179                Points:         360
 RS_GRID| Real space distribution over                                  4 groups
 RS_GRID| Real space distribution along direction                              2
 RS_GRID| Border size                                                         38
 RS_GRID| Real space distribution over                                 10 groups
 RS_GRID| Real space distribution along direction                              3
 RS_GRID| Border size                                                         38
 RS_GRID|   Distribution                         Average         Max         Min
 RS_GRID|   Planes                                 121.0         121         121
 RS_GRID|   Distribution                         Average         Max         Min
 RS_GRID|   Planes                                 112.0         112         112

 RS_GRID| Information for grid number                                          2
 RS_GRID|   Bounds   1            -54      53                Points:         108
 RS_GRID|   Bounds   2            -54      53                Points:         108
 RS_GRID|   Bounds   3           -100      99                Points:         200
 RS_GRID| Real space distribution over                                  4 groups
 RS_GRID| Real space distribution along direction                              2
 RS_GRID| Border size                                                         38
 RS_GRID| Real space distribution over                                 10 groups
 RS_GRID| Real space distribution along direction                              3
 RS_GRID| Border size                                                         38
 RS_GRID|   Distribution                         Average         Max         Min
 RS_GRID|   Planes                                 103.0         103         103
 RS_GRID|   Distribution                         Average         Max         Min
 RS_GRID|   Planes                                  96.0          96          96

 RS_GRID| Information for grid number                                          3
 RS_GRID|   Bounds   1            -30      29                Points:          60
 RS_GRID|   Bounds   2            -30      29                Points:          60
 RS_GRID|   Bounds   3            -60      59                Points:         120
 RS_GRID| Real space fully replicated
 RS_GRID| Group size                                                           1

 RS_GRID| Information for grid number                                          4
 RS_GRID|   Bounds   1            -18      17                Points:          36
 RS_GRID|   Bounds   2            -18      17                Points:          36
 RS_GRID|   Bounds   3            -36      35                Points:          72
 RS_GRID| Real space fully replicated
 RS_GRID| Group size                                                           1

  HFX_INFO| Replica ID:                                                        1
  HFX_INFO| FRACTION:                                               0.2000000000
  HFX_INFO| Interaction Potential:                                     TRUNCATED
  HFX_INFO| Cutoff Radius [angstrom]:                               6.0000000000
  HFX_INFO| EPS_SCHWARZ:                                                 1.0E-08
  HFX_INFO| EPS_SCHWARZ_FORCES                                           1.0E-06
  HFX_INFO| EPS_STORAGE_SCALING:                                         1.0E-01
  HFX_INFO| NBINS:                                                            64
  HFX_INFO| BLOCK_SIZE:                                                        2
  HFX_INFO| NUMBER_OF_SHELLS:                                               AUTO
  HFX_INFO| Number of periodic shells considered:                             -1
  HFX_INFO| Number of periodic cells considered:                              27


 Number of electrons:                                                        320
 Number of occupied orbitals:                                                160
 Number of molecular orbitals:                                               210

 Number of orbital functions:                                               1152
 Number of independent orbital functions:                                   1152

 Extrapolation method: initial_guess

 *** WARNING in qs_initial_guess.F:309 :: User requested to restart the    ***
 *** wavefunction from the file named: Diag_libra-2009-RESTART.wfn. This   ***
 *** file does not exist. Please check the existence of the file or change ***
 *** properly the value of the keyword WFN_RESTART_FILE_NAME. Calculation  ***
 *** continues using ATOMIC GUESS.                                         ***


 Atomic guess: The first density matrix is obtained in terms of atomic orbitals
               and electronic configurations assigned to each atomic kind

 Guess for atomic kind: Si

 Electronic structure
    Total number of core electrons                                         10.00
    Total number of valence electrons                                       4.00
    Total number of electrons                                              14.00
    Multiplicity                                                   not specified
    S   [  2.00  2.00] 2.00
    P   [  6.00] 2.00


 *******************************************************************************
                  Iteration          Convergence                     Energy [au]
 *******************************************************************************
                          1        0.526541E-01                  -3.659692963728
                          2        0.125823E-01                  -3.661785675622
                          3        0.408986E-04                  -3.661911567360
                          4        0.675570E-07                  -3.661911568709

 Energy components [Hartree]           Total Energy ::           -3.661911568709
                                        Band Energy ::           -0.941881516273
                                     Kinetic Energy ::            1.409736465412
                                   Potential Energy ::           -5.071648034121
                                      Virial (-V/T) ::            3.597585902439
                                        Core Energy ::           -5.690149137281
                                          XC Energy ::           -0.992569238249
                                     Coulomb Energy ::            3.020806806821
                       Total Pseudopotential Energy ::           -7.143143335066
                       Local Pseudopotential Energy ::           -8.006124475851
                    Nonlocal Pseudopotential Energy ::            0.862981140786
                                        Confinement ::            0.432577323720

 Orbital energies  State     L     Occupation   Energy[a.u.]          Energy[eV]

                       1     0          2.000      -0.357276           -9.721984

                       1     1          2.000      -0.113664           -3.092965


 Total Electron Density at R=0:                                         0.000026

 Guess for atomic kind: H

 Electronic structure
    Total number of core electrons                                          0.00
    Total number of valence electrons                                       1.00
    Total number of electrons                                               1.00
    Multiplicity                                                   not specified
    S      1.00


 *******************************************************************************
                  Iteration          Convergence                     Energy [au]
 *******************************************************************************
                          1        0.250972E-02                  -0.375256815885
                          2        0.570752E-04                  -0.375258666164
                          3        0.832405E-09                  -0.375258667122

 Energy components [Hartree]           Total Energy ::           -0.375258667122
                                        Band Energy ::           -0.076317618391
                                     Kinetic Energy ::            0.771356566341
                                   Potential Energy ::           -1.146615233463
                                      Virial (-V/T) ::            1.486491829455
                                        Core Energy ::           -0.456090715790
                                          XC Energy ::           -0.314218627334
                                     Coulomb Energy ::            0.395050676003
                       Total Pseudopotential Energy ::           -1.238482237174
                       Local Pseudopotential Energy ::           -1.238482237174
                    Nonlocal Pseudopotential Energy ::            0.000000000000
                                        Confinement ::            0.110349550431

 Orbital energies  State     L     Occupation   Energy[a.u.]          Energy[eV]

                       1     0          1.000      -0.076318           -2.076708


 Total Electron Density at R=0:                                         0.425022

 Guess for atomic kind: Ge

 Electronic structure
    Total number of core electrons                                         28.00
    Total number of valence electrons                                       4.00
    Total number of electrons                                              32.00
    Multiplicity                                                   not specified
    S   [  2.00  2.00  2.00] 2.00
    P   [  6.00  6.00] 2.00
    D   [ 10.00]


 *******************************************************************************
                  Iteration          Convergence                     Energy [au]
 *******************************************************************************
                          1        0.142224                      -3.669910672039
                          2        0.333188E-01                  -3.687823698339
                          3        0.522642E-04                  -3.688875018994
                          4        0.333285E-05                  -3.688875020047
                          5        0.154106E-05                  -3.688875020053
                          6        0.996835E-06                  -3.688875020055

 Energy components [Hartree]           Total Energy ::           -3.688875020055
                                        Band Energy ::           -0.991816616960
                                     Kinetic Energy ::            1.446010121603
                                   Potential Energy ::           -5.134885141658
                                      Virial (-V/T) ::            3.551071368687
                                        Core Energy ::           -5.696847161393
                                          XC Energy ::           -0.988567154744
                                     Coulomb Energy ::            2.996539296082
                       Total Pseudopotential Energy ::           -7.185566698510
                       Local Pseudopotential Energy ::           -7.622158091196
                    Nonlocal Pseudopotential Energy ::            0.436591392686
                                        Confinement ::            0.427094155139

 Orbital energies  State     L     Occupation   Energy[a.u.]          Energy[eV]

                       1     0          2.000      -0.391724          -10.659354

                       1     1          2.000      -0.104184           -2.834997


 Total Electron Density at R=0:                                         0.000078
 Re-scaling the density matrix to get the right number of electrons
                  # Electrons              Trace(P)               Scaling factor
                          320               320.000                        1.000


 SCF WAVEFUNCTION OPTIMIZATION

  Step     Update method      Time    Convergence         Total energy    Change
  ------------------------------------------------------------------------------

  HFX_MEM_INFO| Est. max. program size before HFX [MiB]:                     519

 *** WARNING in hfx_energy_potential.F:591 :: The Kohn Sham matrix is not  ***
 *** 100% occupied. This may result in incorrect Hartree-Fock results. Try ***
 *** to decrease EPS_PGF_ORB and EPS_FILTER_MATRIX in the QS section. For  ***
 *** more information see FAQ: https://www.cp2k.org/faq:hfx_eps_warning    ***

  HFX_MEM_INFO| Number of cart. primitive ERI's calculated:          16133754719
  HFX_MEM_INFO| Number of sph. ERI's calculated:                      4160078078
  HFX_MEM_INFO| Number of sph. ERI's stored in-core:                  4160077731
  HFX_MEM_INFO| Number of sph. ERI's stored on disk:                           0
  HFX_MEM_INFO| Number of sph. ERI's calculated on the fly:                    0
  HFX_MEM_INFO| Total memory consumption ERI's RAM [MiB]:                   6536
  HFX_MEM_INFO| Whereof max-vals [MiB]:                                      278
  HFX_MEM_INFO| Total compression factor ERI's RAM:                         4.86
  HFX_MEM_INFO| Total memory consumption ERI's disk [MiB]:                     0
  HFX_MEM_INFO| Total compression factor ERI's disk:                        0.00
  HFX_MEM_INFO| Size of density/Fock matrix [MiB]:                             2
  HFX_MEM_INFO| Size of buffers [MiB]:                                         1
  HFX_MEM_INFO| Number of periodic image cells considered:                    27
  HFX_MEM_INFO| Est. max. program size after HFX  [MiB]:                     683

     1 NoMix/Diag. 0.30E+00   46.6     1.29472638      -266.0757085739 -2.66E+02
     2 Broy./Diag. 0.30E+00    6.5     0.62620400      -277.4807759151 -1.14E+01
     3 Broy./Diag. 0.30E+00    6.2     0.45806674      -281.7727899798 -4.29E+00
     4 Broy./Diag. 0.30E+00    6.2     0.09387397      -284.6026357264 -2.83E+00
     5 Broy./Diag. 0.30E+00    6.9     0.03695804      -286.3171658571 -1.71E+00
     6 Broy./Diag. 0.30E+00    6.3     0.01802659      -287.3924144274 -1.08E+00
     7 Broy./Diag. 0.30E+00    6.7     0.00718957      -287.7994562403 -4.07E-01
     8 Broy./Diag. 0.30E+00    6.3     0.00735609      -287.8175660718 -1.81E-02
     9 Broy./Diag. 0.30E+00    6.4     0.00527614      -287.8501076403 -3.25E-02
    10 Broy./Diag. 0.30E+00    6.4     0.00733112      -287.8435816301  6.53E-03
    11 Broy./Diag. 0.30E+00    6.3     0.00474096      -287.8503598481 -6.78E-03
    12 Broy./Diag. 0.30E+00    6.7     0.00299228      -287.9365194219 -8.62E-02
    13 Broy./Diag. 0.30E+00    6.3     0.00102171      -287.9654520687 -2.89E-02
    14 Broy./Diag. 0.30E+00    6.5     0.00158286      -287.9581200799  7.33E-03
    15 Broy./Diag. 0.30E+00    6.3     0.00056694      -287.9673953703 -9.28E-03
    16 Broy./Diag. 0.30E+00    6.5     0.00130126      -287.9626019078  4.79E-03
    17 Broy./Diag. 0.30E+00    6.3     0.00034819      -287.9609186406  1.68E-03
    18 Broy./Diag. 0.30E+00    6.3     0.00060327      -287.9569035589  4.02E-03
    19 Broy./Diag. 0.30E+00    6.7     0.00050882      -287.9549139945  1.99E-03
    20 Broy./Diag. 0.30E+00    6.3     0.00014716      -287.9628285475 -7.91E-03
    21 Broy./Diag. 0.30E+00    6.5     0.00022567      -287.9646472755 -1.82E-03
    22 Broy./Diag. 0.30E+00    6.4     0.00006007      -287.9639164332  7.31E-04
    23 Broy./Diag. 0.30E+00    6.5     0.00008435      -287.9644073657 -4.91E-04
    24 Broy./Diag. 0.30E+00    6.4     0.00008346      -287.9645757325 -1.68E-04
    25 Broy./Diag. 0.30E+00    6.4     0.00004533      -287.9652780914 -7.02E-04
    26 Broy./Diag. 0.30E+00    6.6     0.00009803      -287.9655586182 -2.81E-04
    27 Broy./Diag. 0.30E+00    6.3     0.00003701      -287.9657926603 -2.34E-04
    28 Broy./Diag. 0.30E+00    6.6     0.00002872      -287.9658583490 -6.57E-05
    29 Broy./Diag. 0.30E+00    6.4     0.00001463      -287.9658919266 -3.36E-05
    30 Broy./Diag. 0.30E+00    6.6     0.00001222      -287.9660556779 -1.64E-04
    31 Broy./Diag. 0.30E+00    6.3     0.00001141      -287.9659972866  5.84E-05
    32 Broy./Diag. 0.30E+00    6.3     0.00000872      -287.9659950348  2.25E-06
    33 Broy./Diag. 0.30E+00    6.7     0.00000874      -287.9660690723 -7.40E-05
    34 Broy./Diag. 0.30E+00    6.3     0.00000349      -287.9660697539 -6.82E-07
    35 Broy./Diag. 0.30E+00    6.5     0.00000530      -287.9661149930 -4.52E-05
    36 Broy./Diag. 0.30E+00    6.3     0.00000501      -287.9661581433 -4.32E-05
    37 Broy./Diag. 0.30E+00    6.5     0.00000130      -287.9661693503 -1.12E-05
    38 Broy./Diag. 0.30E+00    6.3     0.00000168      -287.9661875704 -1.82E-05
    39 Broy./Diag. 0.30E+00    6.3     0.00000043      -287.9661998131 -1.22E-05

  *** SCF run converged in    39 steps ***


  Electronic density on regular grids:       -319.9999999982        0.0000000018
  Core density on regular grids:              319.9999999278       -0.0000000722
  Total charge density on r-space grids:       -0.0000000704
  Total charge density g-space grids:          -0.0000000704

  Overlap energy of the core charge distribution:               0.00002298640970
  Self energy of the core charge distribution:               -685.99374549079380
  Core Hamiltonian energy:                                    163.77159804912853
  Hartree energy:                                             331.69436936350809
  Exchange-correlation energy:                                -79.82173157748760
  Hartree-Fock Exchange energy:                               -17.16887406076156
  Dispersion energy:                                           -0.44783908314545

  Total energy:                                              -287.96619981314205

   Calculate PDOS at iteration step                                  0

              ---- PDOS: start iteration on the KS states --- 

 *******************************************************************************
 **                                                                           **
 **         ######## #######   #######   ######## #######  ########           **
 **            ##    ##     ## ##     ## ##       ##   ##     ##              **
 **            ##    ##     ## ##     ## ######   #######     ##              **
 **            ##    ##     ## ##     ## ##       ##          ##              **
 **            ##    #######   #######   ##       ##          ##              **
 **                                                                           **
 *******************************************************************************
 
 -------------------------------------------------------------------------------
 -                            TDDFPT Initial Guess                             -
 -------------------------------------------------------------------------------
          State         Occupied      ->      Virtual          Excitation
          number         orbital              orbital          energy (eV)
 -------------------------------------------------------------------------------
             1              160                  161              1.95955
             2              159                  161              2.05944
             3              160                  162              2.09755
             4              160                  163              2.17538
             5              159                  162              2.19744
             6              160                  164              2.22714
             7              159                  163              2.27527
             8              160                  165              2.30546
             9              159                  164              2.32703
            10              159                  165              2.40535
            11              160                  166              2.50288
            12              160                  167              2.57091
            13              160                  168              2.57628
            14              159                  166              2.60277
            15              160                  169              2.63844
            16              160                  170              2.66831
            17              159                  167              2.67080
            18              159                  168              2.67617
            19              160                  171              2.70652
            20              159                  169              2.73833

      Number of active states:                                     158720
 -------------------------------------------------------------------------------
 
 -------------------------------------------------------------------------------
 -                      TDDFPT WAVEFUNCTION OPTIMIZATION                       -
 -------------------------------------------------------------------------------

          Step            Time         Convergence           Conv. states
 -------------------------------------------------------------------------------

    State    Exc. energy (eV)      Convergence (eV)
        1       1.6557572            -3.0379E-01
        2       1.7533605            -3.0608E-01
        3       1.9437582            -1.5379E-01
        4       2.0472139            -1.2817E-01
        5       2.0828021            -1.1463E-01
        6       2.1104799            -1.1666E-01
        7       2.1863371            -8.8935E-02
        8       2.1923861            -1.1308E-01
        9       2.2166621            -1.1037E-01
       10       2.2735768            -1.3178E-01
       11       2.3022429            -2.0063E-01
       12       2.3269714            -2.4394E-01
       13       2.3856749            -1.9061E-01
       14       2.4342712            -1.6850E-01
       15       2.4977257            -1.4071E-01
       16       2.5166524            -1.5166E-01
       17       2.5532248            -1.1758E-01
       18       2.5936542            -8.2519E-02
       19       2.6174671            -8.9049E-02
       20       2.6548623            -8.3464E-02

             1           124.2          1.1248E-02                      0

    State    Exc. energy (eV)      Convergence (eV)
        1       1.6176856            -3.8072E-02
        2       1.7135766            -3.9784E-02
        3       1.9384360            -5.3222E-03
        4       2.0415411            -5.6728E-03
        5       2.0629231            -1.9879E-02
        6       2.0964793            -1.4001E-02
        7       2.1618011            -2.4536E-02
        8       2.1811259            -1.1260E-02
        9       2.1940030            -2.2659E-02
       10       2.2441087            -2.9468E-02
       11       2.2760929            -2.6150E-02
       12       2.2951625            -3.1809E-02
       13       2.3617982            -2.3877E-02
       14       2.4142408            -2.0030E-02
       15       2.4233307            -7.4395E-02
       16       2.4843583            -3.2294E-02
       17       2.5072765            -4.5948E-02
       18       2.5329884            -6.0666E-02
       19       2.5566737            -6.0793E-02
       20       2.5816336            -7.3229E-02

             2           124.2          2.7340E-03                      0

    State    Exc. energy (eV)      Convergence (eV)
        1       1.6110808            -6.6048E-03
        2       1.7063377            -7.2389E-03
        3       1.9380414            -3.9467E-04
        4       2.0410381            -5.0299E-04
        5       2.0602747            -2.6484E-03
        6       2.0950651            -1.4142E-03
        7       2.1582338            -3.5673E-03
        8       2.1786535            -2.4724E-03
        9       2.1899854            -4.0176E-03
       10       2.2396252            -4.4835E-03
       11       2.2702298            -5.8631E-03
       12       2.2898164            -5.3461E-03
       13       2.3568913            -4.9069E-03
       14       2.3876405            -2.6600E-02
       15       2.4089629            -1.4368E-02
       16       2.4437337            -4.0625E-02
       17       2.4657793            -4.1497E-02
       18       2.4925745            -4.0414E-02
       19       2.5316502            -2.5024E-02
       20       2.5439636            -3.7670E-02

[...]
 flops     5 x    18 x    13             19169280       0.0%    100.0%      0.0%
 flops     8 x     2 x    18             43782336       0.0%    100.0%      0.0%
 flops     2 x     8 x    18             44006976       0.0%    100.0%      0.0%
 flops    13 x    18 x    13             49840128       0.0%    100.0%      0.0%
 flops     5 x     5 x    18             74736000       0.0%    100.0%      0.0%
 flops     5 x     1 x     5             77058800       0.0%    100.0%      0.0%
 flops     2 x     2 x    32            108785664       0.0%    100.0%      0.0%
 flops     8 x     8 x    18            186900480       0.0%    100.0%      0.0%
 flops     5 x    13 x    18            191692800       0.0%    100.0%      0.0%
 flops    13 x     5 x    18            191692800       0.0%    100.0%      0.0%
 flops     5 x     1 x    13            200744960       0.0%    100.0%      0.0%
 flops    13 x     1 x     5            200744960       0.0%    100.0%      0.0%
 flops   283 x   111 x    32            412138560       0.0%    100.0%      0.0%
 flops   286 x   111 x    32            416507520       0.0%    100.0%      0.0%
 flops   288 x   111 x    32            419420160       0.0%    100.0%      0.0%
 flops   295 x   111 x    32            429614400       0.0%    100.0%      0.0%
 flops     8 x     2 x    32            467011584       0.0%    100.0%      0.0%
 flops     2 x     8 x    32            469407744       0.0%    100.0%      0.0%
 flops    13 x    13 x    18            506188800       0.0%    100.0%      0.0%
 flops    13 x     1 x    13            521936896       0.0%    100.0%      0.0%
 flops     5 x     5 x    32            797184000       0.0%    100.0%      0.0%
 flops   283 x   113 x    32           1258693440       0.0%    100.0%      0.0%
 flops   286 x   113 x    32           1272036480       0.0%    100.0%      0.0%
 flops   288 x   113 x    32           1280931840       0.0%    100.0%      0.0%
 flops   283 x   116 x    32           1292110080       0.0%    100.0%      0.0%
 flops   286 x   116 x    32           1305807360       0.0%    100.0%      0.0%
 flops   295 x   113 x    32           1312065600       0.0%    100.0%      0.0%
 flops   283 x   118 x    32           1314387840       0.0%    100.0%      0.0%
 flops   288 x   116 x    32           1314938880       0.0%    100.0%      0.0%
 flops   286 x   118 x    32           1328321280       0.0%    100.0%      0.0%
 flops   288 x   118 x    32           1337610240       0.0%    100.0%      0.0%
 flops   295 x   116 x    32           1346899200       0.0%    100.0%      0.0%
 flops   295 x   118 x    32           1370121600       0.0%    100.0%      0.0%
 flops     8 x     8 x    32           1993605120       0.0%    100.0%      0.0%
 flops     5 x    13 x    32           2044723200       0.0%    100.0%      0.0%
 flops    13 x     5 x    32           2044723200       0.0%    100.0%      0.0%
 flops    13 x    13 x    32           5399347200       0.0%    100.0%      0.0%
 flops     2 x    32 x     2           7234191360       0.0%    100.0%      0.0%
 flops     5 x    32 x     5          30767923200       0.0%    100.0%      0.0%
 flops     2 x    32 x     8          31694192640       0.0%    100.0%      0.0%
 flops     8 x    32 x     2          31694192640       0.0%    100.0%      0.0%
 flops     5 x    32 x    13          80153149440       0.0%    100.0%      0.0%
 flops    13 x    32 x     5          80153149440       0.0%    100.0%      0.0%
 flops     8 x    32 x     8         132875550720       0.0%    100.0%      0.0%
 flops    13 x    32 x    13         208398188544       0.0%    100.0%      0.0%
 flops inhomo. stacks                           0       0.0%      0.0%      0.0%
 flops total                       636.052152E+09       0.0%    100.0%      0.0%
 flops max/rank                     27.037987E+09       0.0%    100.0%      0.0%
 matmuls inhomo. stacks                         0       0.0%      0.0%      0.0%
 matmuls total                          210290060       0.0%    100.0%      0.0%
 number of processed stacks               2413800       0.0%    100.0%      0.0%
 average stack size                                     0.0      87.1       0.0
 marketing flops                   647.760314E+09
 -------------------------------------------------------------------------------
 # multiplications                           1647
 max memory usage/rank             868.413440E+06
 # max total images/rank                        5
 # max 3D layers                                1
 # MPI messages exchanged                 2174040
 MPI messages size (bytes):
  total size                       141.461406E+09
  min size                           0.000000E+00
  max size                         176.800000E+03
  average size                      65.068445E+03
 MPI breakdown and total messages size (bytes):
             size <=      128              590112                        0
       128 < size <=     8192               22680                 10882944
      8192 < size <=    32768              424164               8097069312
     32768 < size <=   131072              666564              66143317968
    131072 < size <=  4194304              470520              67198725360
   4194304 < size <= 16777216                   0                        0
  16777216 < size                               0                        0
 -------------------------------------------------------------------------------

 *** WARNING in dbcsr_mm.F:294 :: Using a non-square number of MPI ranks ***
 *** might lead to poor performance. Used ranks: 40 Suggested: 36 81     ***

 -------------------------------------------------------------------------------
 -                                                                             -
 -                      DBCSR MESSAGE PASSING PERFORMANCE                      -
 -                                                                             -
 -------------------------------------------------------------------------------
 ROUTINE             CALLS      AVE VOLUME [Bytes]
 MP_Bcast               49                     12.
 MP_Allreduce         5634                      8.
 MP_Alltoall         51756                  32581.
 MP_ISend           124932                  32094.
 MP_IRecv           131280                  30060.
 -------------------------------------------------------------------------------

 -------------------------------------------------------------------------------
 -                                                                             -
 -                                GRID STATISTICS                              -
 -                                                                             -
 -------------------------------------------------------------------------------
 LP    KERNEL             BACKEND                              COUNT     PERCENT
 1     collocate general  REF                                9721140      16.37%
 3     collocate general  REF                                9554166      16.09%
 3     integrate general  REF                                9480954      15.96%
 0     collocate general  REF                                7966580      13.41%
 2     collocate general  REF                                7933160      13.36%
 2     integrate general  REF                                4993520       8.41%
 4     collocate general  REF                                4889313       8.23%
 4     integrate general  REF                                4851847       8.17%
 -------------------------------------------------------------------------------

 MEMORY| Estimated peak process memory [MiB]                                 829

 -------------------------------------------------------------------------------
 ----                             MULTIGRID INFO                            ----
 -------------------------------------------------------------------------------
 count for grid        1:         222323          cutoff [a.u.]          175.00
 count for grid        2:         200163          cutoff [a.u.]           58.33
 count for grid        3:         186259          cutoff [a.u.]           19.44
 count for grid        4:          73855          cutoff [a.u.]            6.48
 total gridlevel count  :         682600

 -------------------------------------------------------------------------------
 -                                                                             -
 -                         MESSAGE PASSING PERFORMANCE                         -
 -                                                                             -
 -------------------------------------------------------------------------------

 ROUTINE             CALLS      AVE VOLUME [Bytes]
 MP_Group                4
 MP_Bcast              696                1599148.
 MP_Allreduce        26461                    265.
 MP_Sync              1446
 MP_Alltoall          7785               10229382.
 MP_ISendRecv        81120                  63197.
 MP_Wait            162332
 MP_comm_split          72
 MP_ISend            73366                 299667.
 MP_IRecv            74188                 297449.
 MP_Recv               378                 149650.
 -------------------------------------------------------------------------------


 -------------------------------------------------------------------------------
 -                                                                             -
 -                           R E F E R E N C E S                               -
 -                                                                             -
 -------------------------------------------------------------------------------
 
 CP2K version 9.1, the CP2K developers group (2021).
 CP2K is freely available from https://www.cp2k.org/ .

 Kuehne,Thomas D.; Iannuzzi,Marcella; Del Ben,Mauro;
 Rybkin,Vladimir V.; Seewald,Patrick; Stein,Frederick; Laino,Teodoro;
 Khaliullin,Rustam Z.; Schuett,Ole; Schiffmann,Florian; Golze,Dorothea;
 Wilhelm,Jan; Chulkov,Sergey; Bani-Hashemian,Mohammad Hossein;
 Weber,Valery; Borstnik,Urban; Taillefumier,Mathieu;
 Jakobovits,Alice Shoshana; Lazzaro,Alfio; Pabst,Hans; Mueller,Tiziano;
 Schade,Robert; Guidon,Manuel; Andermatt,Samuel; Holmberg,Nico;
 Schenter,Gregory K.; Hehn,Anna; Bussy,Augustin; Belleflamme,Fabian;
 Tabacchi,Gloria; Gloess,Andreas; Lass,Michael; Bethune,Iain;
 Mundy,Christopher J.; Plessl,Christian; Watkins,Matt;
 VandeVondele,Joost; Krack,Matthias; Hutter,Juerg. 
 The Journal of Chemical Physics, 152 (19), (2020). 
 CP2K: An electronic structure and molecular dynamics software package -
 Quickstep: Efficient and accurate electronic structure calculations.
 https://doi.org/10.1063/5.0007045

 Goerigk, Lars; Hansen, Andreas; Bauer, Christoph; Ehrlich, Stephan;
 Najibi, Asim; Grimme, Stefan. , 19 (48), (2017). 
 A look at the density functional theory zoo with the advanced GMTKN55 database
 for general main group thermochemistry, kinetics and noncovalent interactions.
 https://doi.org/10.1039/C7CP04913G

 Schuett, Ole; Messmer, Peter; Hutter, Juerg; VandeVondele, Joost. 
 Electronic Structure Calculations on Graphics Processing Units, John
 Wiley & Sons, Ltd, 173-190 (2016). 
 GPU-Accelerated Sparse Matrix-Matrix Multiplication for
 Linear Scaling Density Functional Theory.
 https://doi.org/10.1002/9781118670712.ch8

 Heinecke, A; Henry, G; Hutchinson, M; Pabst, H. 
 Proceedings of Intl. Supercomputing Conference, 981-991 (2016). 
 LIBXSMM: Accelerating Small Matrix Multiplications
 by Runtime Code Generation.
 https://doi.org/10.1109/SC.2016.83

 Borstnik, U; VandeVondele, J; Weber, V; Hutter, J. 
 PARALLEL COMPUTING, 40 (5-6), 47-58 (2014). 
 Sparse matrix multiplication: The distributed block-compressed sparse
 row library.
 https://doi.org/10.1016/j.parco.2014.03.012

 Hutter, J; Iannuzzi, M; Schiffmann, F; VandeVondele, J. 
 WIREs Comput Mol Sci., 4 (1), 15-25 (2014). 
 CP2K: atomistic simulations of condensed matter systems.
 https://doi.org/10.1002/wcms.1159

 Grimme, S; Ehrlich, S; Goerigk, L. 
 JOURNAL OF COMPUTATIONAL CHEMISTRY, 32, 1456 (2011). 
 Effect of the damping function in dispersion corrected density functional theory.
 https://doi.org/10.1002/jcc.21759

 Guidon, M; Hutter, J; VandeVondele, J. 
 JOURNAL OF CHEMICAL THEORY AND COMPUTATION, 6 (8), 2348-2364 (2010). 
 Auxiliary Density Matrix Methods for Hartree-Fock Exchange Calculations.
 https://doi.org/10.1021/ct1002225

 Grimme, S; Antony, J; Ehrlich, S; Krieg, H. 
 JOURNAL OF CHEMICAL PHYSICS, 132 (15), 154104 (2010). 
 A consistent and accurate ab initio parametrization of density
 functional dispersion correction (DFT-D) for the 94 elements H-Pu.
 https://doi.org/10.1063/1.3382344

 Guidon, M; Hutter, J; VandeVondele, J. 
 JOURNAL OF CHEMICAL THEORY AND COMPUTATION, 5 (11), 3010-3021 (2009). 
 Robust Periodic Hartree-Fock Exchange for Large-Scale Simulations Using
 Gaussian Basis Sets.
 https://doi.org/10.1021/ct900494g

 Guidon, M; Schiffmann, F; Hutter, J; VandeVondele, J. 
 JOURNAL OF CHEMICAL PHYSICS, 128 (21), 214104 (2008). 
 Ab initio molecular dynamics using hybrid density functionals.
 https://doi.org/10.1063/1.2931945

 VandeVondele, J; Hutter, J. 
 JOURNAL OF CHEMICAL PHYSICS, 127 (11), 114105 (2007). 
 Gaussian basis sets for accurate calculations on molecular systems in
 gas and condensed phases.
 https://doi.org/10.1063/1.2770708

 Krack, M. 
 THEORETICAL CHEMISTRY ACCOUNTS, 114 (1-3), 145-152 (2005). 
 Pseudopotentials for H to Kr optimized for gradient-corrected
 exchange-correlation functionals.
 https://doi.org/10.1007/s00214-005-0655-y

 VandeVondele, J; Krack, M; Mohamed, F; Parrinello, M; Chassaing, T;
 Hutter, J. COMPUTER PHYSICS COMMUNICATIONS, 167 (2), 103-128 (2005). 
 QUICKSTEP: Fast and accurate density functional calculations using a
 mixed Gaussian and plane waves approach.
 https://doi.org/10.1016/j.cpc.2004.12.014

 Frigo, M; Johnson, SG. 
 PROCEEDINGS OF THE IEEE, 93 (2), 216-231 (2005). 
 The design and implementation of FFTW3.
 https://doi.org/10.1109/JPROC.2004.840301

 Iannuzzi, M; Chassaing, T; Wallman, T; Hutter, J. 
 CHIMIA, 59 (7-8), 499-503 (2005). 
 Ground and excited state density functional calculations with the
 Gaussian and augmented-plane-wave method.
 https://doi.org/10.2533/000942905777676164

 Martin,Richard L.. 
 The Journal of Chemical Physics, 118 (11), 4775-4777 (2003). 
 Natural transition orbitals.
 https://doi.org/10.1063/1.1558471

 Hartwigsen, C; Goedecker, S; Hutter, J. 
 PHYSICAL REVIEW B, 58 (7), 3641-3662 (1998). 
 Relativistic separable dual-space Gaussian pseudopotentials from H to Rn.
 https://doi.org/10.1103/PhysRevB.58.3641

 Lippert, G; Hutter, J; Parrinello, M. 
 MOLECULAR PHYSICS, 92 (3), 477-487 (1997). 
 A hybrid Gaussian and plane wave density functional scheme.
 https://doi.org/10.1080/002689797170220

 Goedecker, S; Teter, M; Hutter, J. 
 PHYSICAL REVIEW B, 54 (3), 1703-1710 (1996). 
 Separable dual-space Gaussian pseudopotentials.
 https://doi.org/10.1103/PhysRevB.54.1703

 BECKE, AD. PHYSICAL REVIEW A, 38 (6), 3098-3100 (1988). 
 DENSITY-FUNCTIONAL EXCHANGE-ENERGY APPROXIMATION WITH CORRECT
 ASYMPTOTIC-BEHAVIOR.
 https://doi.org/10.1103/PhysRevA.38.3098

 LEE, CT; YANG, WT; PARR, RG. 
 PHYSICAL REVIEW B, 37 (2), 785-789 (1988). 
 DEVELOPMENT OF THE COLLE-SALVETTI CORRELATION-ENERGY FORMULA INTO A
 FUNCTIONAL OF THE ELECTRON-DENSITY.
 https://doi.org/10.1103/PhysRevB.37.785

 VOSKO, SH; WILK, L; NUSAIR, M. 
 CANADIAN JOURNAL OF PHYSICS, 58 (8), 1200-1211 (1980). 
 ACCURATE SPIN-DEPENDENT ELECTRON LIQUID CORRELATION ENERGIES FOR LOCAL
 SPIN-DENSITY CALCULATIONS - A CRITICAL ANALYSIS.
 https://doi.org/10.1139/p80-159


 -------------------------------------------------------------------------------
 -                                                                             -
 -                                T I M I N G                                  -
 -                                                                             -
 -------------------------------------------------------------------------------
 SUBROUTINE                       CALLS  ASD         SELF TIME        TOTAL TIME
                                MAXIMUM       AVERAGE  MAXIMUM  AVERAGE  MAXIMUM
 CP2K                                 1  1.0    0.021    0.037 1668.241 1668.248
 qs_energies                          1  2.0    0.000    0.000 1667.737 1667.743
 qs_energies_properties               1  3.0    0.000    0.000 1372.007 1372.015
 tddfpt                               1  4.0    0.000    0.001 1372.007 1372.014
 tddfpt_davidson_solver               2  5.0    0.002    0.004 1367.432 1367.437
 tddfpt_compute_Aop_evects           11  6.0    0.000    0.000 1362.327 1362.333
 integrate_four_center              259  9.0    0.323    0.708 1208.671 1208.676
 integrate_four_center_main         259 10.0    0.081    0.086 1153.790 1182.868
 integrate_four_center_bin        16576 11.0 1153.709 1182.785 1153.709 1182.785
 tddfpt_apply_hfx                    11  7.0    0.004    0.005  996.681  996.685
 tddft_hfx_matrix                   220  8.0    0.004    0.005  991.434  991.438
 fhxc_kernel                         11  7.0    0.010    0.012  364.169  364.171
 scf_env_do_scf                       1  3.0    0.000    0.000  291.666  294.426
 scf_env_do_scf_inner_loop           39  4.0    0.001    0.007  291.666  294.426
 qs_ks_update_qs_env                 39  5.0    0.000    0.000  264.143  264.145
 rebuild_ks_matrix                   39  6.0    0.000    0.000  264.132  264.133
 qs_ks_build_kohn_sham_matrix        39  7.0    0.005    0.005  264.132  264.133
 hfx_ks_matrix                       39  8.0    0.001    0.001  217.255  217.256
 calculate_rho_elec                 521  8.8    1.046    1.434  185.585  185.595
 pw_transfer                       6714 10.2    0.559    0.673  166.462  167.358
 fft_wrap_pw1pw2                   6196 11.2    0.074    0.086  164.484  165.250
 fft_wrap_pw1pw2_180               3856 12.0   14.281   15.584  157.088  157.456
 fft3d_ps                          6196 13.2   67.625   73.794  120.931  123.178
 density_rs2pw                      521  9.8    0.032    0.035   98.683  106.864
 qs_rho_update_rho                  261  7.5    0.002    0.002  106.453  106.464
 integrate_v_rspace                 259  8.2    0.008    0.009  104.890  105.456
 tddfpt_apply_xc_analytic           440  8.0    1.720    1.934   98.881   99.438
 grid_collocate_task_list           521  9.8   83.632   88.892   83.632   88.892
 rs_pw_transfer                    3121 10.6    0.042    0.049   78.399   87.625
 tddfpt_construct_aux_fit_densi     221  8.0    0.004    0.006   70.185   70.703
 mp_sync                           1446 10.7   49.044   68.455   49.044   68.455
 xc_calc_2nd_deriv_analytical       440  9.0    5.004    5.645   65.091   65.270
 grid_integrate_task_list           259  9.2   57.439   60.458   57.439   60.458
 mp_alltoall_z22v                  6196 15.2   36.560   46.222   36.560   46.222
 potential_pw2rs                    259  9.2    0.041    0.046   43.496   44.055
 rs_pw_transfer_RS2PW_180           522 11.8   18.394   20.450   32.658   41.467
 mp_waitany                       73366 12.6   23.396   35.680   23.396   35.680
 -------------------------------------------------------------------------------

 The number of warnings for this run is : 3
 
 -------------------------------------------------------------------------------
  **** **** ******  **  PROGRAM ENDED AT                 2024-11-11 11:47:26.301
 ***** ** ***  *** **   PROGRAM RAN ON            bc12016.int.ets1.calculquebec.
 **    ****   ******    PROGRAM RAN BY                                  ekadashi
 ***** **    ** ** **   PROGRAM PROCESS ID                               3123401
  **** **  *******  **  PROGRAM STOPPED IN /scratch/ekadashi/Libra_CP2K/SiGe_Het
                                           ero/step2_B3LYP/SET2/job2
