 DBCSR| CPU Multiplication driver                                           XSMM
 DBCSR| Multrec recursion limit                                              512
 DBCSR| Multiplication stack size                                           1000
 DBCSR| Maximum elements for images                                    UNLIMITED
 DBCSR| Multiplicative factor virtual images                                   1
 DBCSR| Use multiplication densification                                       T
 DBCSR| Multiplication size stacks                                             3
 DBCSR| Use memory pool for CPU allocation                                     F
 DBCSR| Number of 3D layers                                               SINGLE
 DBCSR| Use MPI memory allocation                                              F
 DBCSR| Use RMA algorithm                                                      F
 DBCSR| Use Communication thread                                               T
 DBCSR| Communication thread load                                             87
 DBCSR| MPI: My node id                                                        0
 DBCSR| MPI: Number of nodes                                                  40
 DBCSR| OMP: Current number of threads                                         1
 DBCSR| OMP: Max number of threads                                             1
 DBCSR| Split modifier for TAS multiplication algorithm                  1.0E+00


  **** **** ******  **  PROGRAM STARTED AT               2024-11-11 12:08:00.225
 ***** ** ***  *** **   PROGRAM STARTED ON        bc12007.int.ets1.calculquebec.
 **    ****   ******    PROGRAM STARTED BY                              ekadashi
 ***** **    ** ** **   PROGRAM PROCESS ID                               2942969
  **** **  *******  **  PROGRAM STARTED IN /scratch/ekadashi/Libra_CP2K/SiGe_Het
                                           ero/step2_B3LYP/SET2/job1

 CP2K| version string:                                          CP2K version 9.1
 CP2K| source code revision number:                                  git:d8d7100
 CP2K| cp2kflags: omp libint fftw3 libxc parallel mpi3 scalapack xsmm plumed2   
 CP2K| is freely available from                            https://www.cp2k.org/
 CP2K| Program compiled at                       Thu 20 Jan 2022 10:47:29 PM UTC
 CP2K| Program compiled on                           build-node.computecanada.ca
 CP2K| Program compiled for                                   Linux-x86-64-gofbf
 CP2K| Data directory path    /cvmfs/soft.computecanada.ca/easybuild/software/20
 CP2K| Input file name                                       Diag_libra-2005.inp

 GLOBAL| Force Environment number                                              1
 GLOBAL| Basis set file name                                        BASIS_MOLOPT
 GLOBAL| Potential file name                                           POTENTIAL
 GLOBAL| MM Potential file name                                     MM_POTENTIAL
 GLOBAL| Coordinate file name                                     coord-2005.xyz
 GLOBAL| Method name                                                        CP2K
 GLOBAL| Project name                                            Diag_libra-2005
 GLOBAL| Run type                                                         ENERGY
 GLOBAL| FFT library                                                       FFTW3
 GLOBAL| Diagonalization library                                       ScaLAPACK
 GLOBAL| Orthonormality check for eigenvectors                          DISABLED
 GLOBAL| Matrix multiplication library                                 ScaLAPACK
 GLOBAL| All-to-all communication in single precision                          F
 GLOBAL| FFTs using library dependent lengths                                  F
 GLOBAL| Grid backend                                                       AUTO
 GLOBAL| Global print level                                               MEDIUM
 GLOBAL| MPI I/O enabled                                                       T
 GLOBAL| Total number of message passing processes                            40
 GLOBAL| Number of threads for this process                                    1
 GLOBAL| This output is from process                                           0
 GLOBAL| Stack size for threads created by OpenMP (OMP_STACKSIZE)        default
 GLOBAL| CPU model name                 Intel(R) Xeon(R) Gold 6148 CPU @ 2.40GHz
 GLOBAL| CPUID                                                              1003

 MEMORY| system memory details [Kb]
 MEMORY|                        rank 0           min           max       average
 MEMORY| MemTotal            196639196     196639196     196639196     196639196
 MEMORY| MemFree             175709260     175709260     175709260     175709260
 MEMORY| Buffers                    76            76            76            76
 MEMORY| Cached                4124676       4124676       4124676       4124676
 MEMORY| Slab                  2235480       2235480       2235480       2235480
 MEMORY| SReclaimable           396484        396484        396484        396484
 MEMORY| MemLikelyFree       180230496     180230496     180230496     180230496


 *** Fundamental physical constants (SI units) ***

 *** Literature: B. J. Mohr and B. N. Taylor,
 ***             CODATA recommended values of the fundamental physical
 ***             constants: 2006, Web Version 5.1
 ***             http://physics.nist.gov/constants

 Speed of light in vacuum [m/s]                             2.99792458000000E+08
 Magnetic constant or permeability of vacuum [N/A**2]       1.25663706143592E-06
 Electric constant or permittivity of vacuum [F/m]          8.85418781762039E-12
 Planck constant (h) [J*s]                                  6.62606896000000E-34
 Planck constant (h-bar) [J*s]                              1.05457162825177E-34
 Elementary charge [C]                                      1.60217648700000E-19
 Electron mass [kg]                                         9.10938215000000E-31
 Electron g factor [ ]                                     -2.00231930436220E+00
 Proton mass [kg]                                           1.67262163700000E-27
 Fine-structure constant                                    7.29735253760000E-03
 Rydberg constant [1/m]                                     1.09737315685270E+07
 Avogadro constant [1/mol]                                  6.02214179000000E+23
 Boltzmann constant [J/K]                                   1.38065040000000E-23
 Atomic mass unit [kg]                                      1.66053878200000E-27
 Bohr radius [m]                                            5.29177208590000E-11

 *** Conversion factors ***

 [u] -> [a.u.]                                              1.82288848426455E+03
 [Angstrom] -> [Bohr] = [a.u.]                              1.88972613288564E+00
 [a.u.] = [Bohr] -> [Angstrom]                              5.29177208590000E-01
 [a.u.] -> [s]                                              2.41888432650478E-17
 [a.u.] -> [fs]                                             2.41888432650478E-02
 [a.u.] -> [J]                                              4.35974393937059E-18
 [a.u.] -> [N]                                              8.23872205491840E-08
 [a.u.] -> [K]                                              3.15774647902944E+05
 [a.u.] -> [kJ/mol]                                         2.62549961709828E+03
 [a.u.] -> [kcal/mol]                                       6.27509468713739E+02
 [a.u.] -> [Pa]                                             2.94210107994716E+13
 [a.u.] -> [bar]                                            2.94210107994716E+08
 [a.u.] -> [atm]                                            2.90362800883016E+08
 [a.u.] -> [eV]                                             2.72113838565563E+01
 [a.u.] -> [Hz]                                             6.57968392072181E+15
 [a.u.] -> [1/cm] (wave numbers)                            2.19474631370540E+05
 [a.u./Bohr**2] -> [1/cm]                                   5.14048714338585E+03
 

 CELL_TOP| Volume [angstrom^3]:                                      6540.008810
 CELL_TOP| Vector a [angstrom    15.928     0.000     0.000   |a| =    15.927500
 CELL_TOP| Vector b [angstrom    -7.965    13.786     0.000   |b| =    15.921700
 CELL_TOP| Vector c [angstrom    -0.000     0.000    29.784   |c| =    29.783600
 CELL_TOP| Angle (b,c), alpha [degree]:                                89.999800
 CELL_TOP| Angle (a,c), beta  [degree]:                                90.000200
 CELL_TOP| Angle (a,b), gamma [degree]:                               120.015200
 CELL_TOP| Numerically orthorhombic:                                          NO

 GENERATE|  Preliminary Number of Bonds generated:                             0
 GENERATE|  Achieved consistency in connectivity generation.

 CELL| Volume [angstrom^3]:                                          6540.008810
 CELL| Vector a [angstrom]:      15.928     0.000     0.000   |a| =    15.927500
 CELL| Vector b [angstrom]:      -7.965    13.786     0.000   |b| =    15.921700
 CELL| Vector c [angstrom]:      -0.000     0.000    29.784   |c| =    29.783600
 CELL| Angle (b,c), alpha [degree]:                                    89.999800
 CELL| Angle (a,c), beta  [degree]:                                    90.000200
 CELL| Angle (a,b), gamma [degree]:                                   120.015200
 CELL| Numerically orthorhombic:                                              NO

 CELL_REF| Volume [angstrom^3]:                                      6540.008810
 CELL_REF| Vector a [angstrom    15.928     0.000     0.000   |a| =    15.927500
 CELL_REF| Vector b [angstrom    -7.965    13.786     0.000   |b| =    15.921700
 CELL_REF| Vector c [angstrom    -0.000     0.000    29.784   |c| =    29.783600
 CELL_REF| Angle (b,c), alpha [degree]:                                89.999800
 CELL_REF| Angle (a,c), beta  [degree]:                                90.000200
 CELL_REF| Angle (a,b), gamma [degree]:                               120.015200
 CELL_REF| Numerically orthorhombic:                                          NO

 *******************************************************************************
 *******************************************************************************
 **                                                                           **
 **     #####                         ##              ##                      **
 **    ##   ##            ##          ##              ##                      **
 **   ##     ##                       ##            ######                    **
 **   ##     ##  ##   ##  ##   #####  ##  ##   ####   ##    #####    #####    **
 **   ##     ##  ##   ##  ##  ##      ## ##   ##      ##   ##   ##  ##   ##   **
 **   ##  ## ##  ##   ##  ##  ##      ####     ###    ##   ######   ######    **
 **    ##  ###   ##   ##  ##  ##      ## ##      ##   ##   ##       ##        **
 **     #######   #####   ##   #####  ##  ##  ####    ##    #####   ##        **
 **           ##                                                    ##        **
 **                                                                           **
 **                                                ... make the atoms dance   **
 **                                                                           **
 **            Copyright (C) by CP2K developers group (2000-2021)             **
 **                      J. Chem. Phys. 152, 194103 (2020)                    **
 **                                                                           **
 *******************************************************************************

 DFT| Spin restricted Kohn-Sham (RKS) calculation                            RKS
 DFT| Multiplicity                                                             1
 DFT| Number of spin states                                                    1
 DFT| Charge                                                                   0
 DFT| Self-interaction correction (SIC)                                       NO
 DFT| Cutoffs: density                                              1.000000E-10
 DFT|          gradient                                             1.000000E-10
 DFT|          tau                                                  1.000000E-10
 DFT|          cutoff_smoothing_range                               0.000000E+00
 DFT| XC density smoothing                                                  NONE
 DFT| XC derivatives                                                          PW
 FUNCTIONAL| ROUTINE=NEW
 FUNCTIONAL| BECKE88:
 FUNCTIONAL| A. Becke, Phys. Rev. A 38, 3098 (1988) {LDA version}               
 FUNCTIONAL| LYP:
 FUNCTIONAL| C. Lee, W. Yang, R.G. Parr, Phys. Rev. B, 37, 785 (1988) {LDA versi
 FUNCTIONAL| on}                                                                
 FUNCTIONAL| VWN:
 FUNCTIONAL| S. H. Vosko, L. Wilk and M. Nusair, Can. J. Phys. 58, 1200 (1980) {
 FUNCTIONAL| LDA version}                                                       
 FUNCTIONAL| XALPHA:
 FUNCTIONAL| Dirac/Slater local exchange; parameter=  0.666 {LDA}               
 vdW POTENTIAL|                                                   Pair Potential
 vdW POTENTIAL|          DFT-D3 (Version 3.1)
 vdW POTENTIAL|          Potential Form: S. Grimme et al, JCP 132: 154104 (2010)
 vdW POTENTIAL|          Zero Damping
 vdW POTENTIAL|          Cutoff Radius [Bohr]:                             20.00
 vdW POTENTIAL|          s6 Scaling Factor:                               1.0000
 vdW POTENTIAL|          sr6 Scaling Factor:                              1.2610
 vdW POTENTIAL|          s8 Scaling Factor:                               1.7030
 vdW POTENTIAL|          Cutoff for CN calculation:                   0.1000E-05

 QS| Method:                                                                 GPW
 QS| Density plane wave grid type                        NON-SPHERICAL FULLSPACE
 QS| Number of grid levels:                                                    4
 QS| Density cutoff [a.u.]:                                                175.0
 QS| Multi grid cutoff [a.u.]: 1) grid level                               175.0
 QS|                           2) grid level                                58.3
 QS|                           3) grid level                                19.4
 QS|                           4) grid level                                 6.5
 QS| Grid level progression factor:                                          3.0
 QS| Relative density cutoff [a.u.]:                                        25.0
 QS| Interaction thresholds: eps_pgf_orb:                                1.0E-05
 QS|                         eps_filter_matrix:                          0.0E+00
 QS|                         eps_core_charge:                            1.0E-12
 QS|                         eps_rho_gspace:                             1.0E-10
 QS|                         eps_rho_rspace:                             1.0E-10
 QS|                         eps_gvg_rspace:                             1.0E-05
 QS|                         eps_ppl:                                    1.0E-02
 QS|                         eps_ppnl:                                   1.0E-07


 ATOMIC KIND INFORMATION

  1. Atomic kind: Si                                    Number of atoms:      32

     Orbital Basis Set                                     DZVP-MOLOPT-SR-GTH-q4

       Number of orbital shell sets:                                           1
       Number of orbital shells:                                               5
       Number of primitive Cartesian functions:                                4
       Number of Cartesian basis functions:                                   14
       Number of spherical basis functions:                                   13
       Norm type:                                                              2

       Normalised Cartesian orbitals:

                        Set   Shell   Orbital            Exponent    Coefficient

                          1       1    2s                1.256768       0.294045
                                                         0.506394      -0.015884
                                                         0.238884      -0.207657
                                                         0.087337      -0.036225

                          1       2    3s                1.256768      -1.532347
                                                         0.506394       0.524539
                                                         0.238884       0.025013
                                                         0.087337      -0.052203

                          1       3    3px               1.256768       0.152274
                                                         0.506394      -0.154145
                                                         0.238884      -0.115581
                                                         0.087337      -0.028372
                          1       3    3py               1.256768       0.152274
                                                         0.506394      -0.154145
                                                         0.238884      -0.115581
                                                         0.087337      -0.028372
                          1       3    3pz               1.256768       0.152274
                                                         0.506394      -0.154145
                                                         0.238884      -0.115581
                                                         0.087337      -0.028372

                          1       4    4px               1.256768       0.313378
                                                         0.506394      -0.415360
                                                         0.238884      -0.022539
                                                         0.087337       0.078473
                          1       4    4py               1.256768       0.313378
                                                         0.506394      -0.415360
                                                         0.238884      -0.022539
                                                         0.087337       0.078473
                          1       4    4pz               1.256768       0.313378
                                                         0.506394      -0.415360
                                                         0.238884      -0.022539
                                                         0.087337       0.078473

                          1       5    4dx2              1.256768       0.325879
                                                         0.506394       0.163831
                                                         0.238884       0.044076
                                                         0.087337       0.010608
                          1       5    4dxy              1.256768       0.564439
                                                         0.506394       0.283764
                                                         0.238884       0.076342
                                                         0.087337       0.018373
                          1       5    4dxz              1.256768       0.564439
                                                         0.506394       0.283764
                                                         0.238884       0.076342
                                                         0.087337       0.018373
                          1       5    4dy2              1.256768       0.325879
                                                         0.506394       0.163831
                                                         0.238884       0.044076
                                                         0.087337       0.010608
                          1       5    4dyz              1.256768       0.564439
                                                         0.506394       0.283764
                                                         0.238884       0.076342
                                                         0.087337       0.018373
                          1       5    4dz2              1.256768       0.325879
                                                         0.506394       0.163831
                                                         0.238884       0.044076
                                                         0.087337       0.010608

     Auxiliary Fit Basis Set                                               cFIT3

       Number of orbital shell sets:                                           4
       Number of orbital shells:                                               4
       Number of primitive Cartesian functions:                                6
       Number of Cartesian basis functions:                                    8
       Number of spherical basis functions:                                    8
       Norm type:                                                              2

       Normalised Cartesian orbitals:

                        Set   Shell   Orbital            Exponent    Coefficient

                          1       1    1s                0.096480       0.123378

                          2       1    1s                0.246960      -0.309315
                                                         1.277560       0.429908

                          3       1    1px               0.089490       0.069768
                          3       1    1py               0.089490       0.069768
                          3       1    1pz               0.089490       0.069768

                          4       1    1px               0.295630       0.313983
                                                         2.202470      -0.124968
                          4       1    1py               0.295630       0.313983
                                                         2.202470      -0.124968
                          4       1    1pz               0.295630       0.313983
                                                         2.202470      -0.124968

       Atomic covalent radius [Angstrom]:                                  1.110

       Atomic van der Waals radius [Angstrom]:                             2.100

     GTH Potential information for                                       GTH-PBE

       Description:                       Goedecker-Teter-Hutter pseudopotential
                                           Goedecker et al., PRB 54, 1703 (1996)
                                          Hartwigsen et al., PRB 58, 3641 (1998)
                                                      Krack, TCA 114, 145 (2005)

       Gaussian exponent of the core charge distribution:               2.582645
       Electronic configuration (s p d ...):                               2   2

       Parameters of the local part of the GTH pseudopotential:

                          rloc        C1          C2          C3          C4
                        0.440000   -6.269288

       Parameters of the non-local part of the GTH pseudopotential:

                   l      r(l)      h(i,j,l)

                   0    0.435634    8.951742   -2.706271
                                   -2.706271    3.493781
                   1    0.497942    2.431277

  2. Atomic kind: H                                     Number of atoms:      64

     Orbital Basis Set                                     DZVP-MOLOPT-SR-GTH-q1

       Number of orbital shell sets:                                           1
       Number of orbital shells:                                               3
       Number of primitive Cartesian functions:                                5
       Number of Cartesian basis functions:                                    5
       Number of spherical basis functions:                                    5
       Norm type:                                                              2

       Normalised Cartesian orbitals:

                        Set   Shell   Orbital            Exponent    Coefficient

                          1       1    2s               10.068468      -0.133023
                                                         2.680223      -0.177618
                                                         0.791502      -0.258419
                                                         0.239116      -0.107525
                                                         0.082193      -0.014019

                          1       2    3s               10.068468       0.344673
                                                         2.680223       1.819821
                                                         0.791502      -0.999069
                                                         0.239116       0.017430
                                                         0.082193       0.082660

                          1       3    3px              10.068468       0.155326
                                                         2.680223       0.367157
                                                         0.791502       0.311480
                                                         0.239116       0.080105
                                                         0.082193       0.033440
                          1       3    3py              10.068468       0.155326
                                                         2.680223       0.367157
                                                         0.791502       0.311480
                                                         0.239116       0.080105
                                                         0.082193       0.033440
                          1       3    3pz              10.068468       0.155326
                                                         2.680223       0.367157
                                                         0.791502       0.311480
                                                         0.239116       0.080105
                                                         0.082193       0.033440

     Auxiliary Fit Basis Set                                               cFIT3

       Number of orbital shell sets:                                           2
       Number of orbital shells:                                               2
       Number of primitive Cartesian functions:                                3
       Number of Cartesian basis functions:                                    2
       Number of spherical basis functions:                                    2
       Norm type:                                                              2

       Normalised Cartesian orbitals:

                        Set   Shell   Orbital            Exponent    Coefficient

                          1       1    1s                0.113290       0.139173

                          2       1    1s                0.551250       0.404894
                                                         3.585030       0.334062

       Atomic covalent radius [Angstrom]:                                  0.320

       Atomic van der Waals radius [Angstrom]:                             1.090

     GTH Potential information for                                       GTH-PBE

       Description:                       Goedecker-Teter-Hutter pseudopotential
                                           Goedecker et al., PRB 54, 1703 (1996)
                                          Hartwigsen et al., PRB 58, 3641 (1998)
                                                      Krack, TCA 114, 145 (2005)

       Gaussian exponent of the core charge distribution:              12.500000
       Electronic configuration (s p d ...):                                   1

       Parameters of the local part of the GTH pseudopotential:

                          rloc        C1          C2          C3          C4
                        0.200000   -4.178900    0.724463

  3. Atomic kind: Ge                                    Number of atoms:      32

     Orbital Basis Set                                     DZVP-MOLOPT-SR-GTH-q4

       Number of orbital shell sets:                                           1
       Number of orbital shells:                                               5
       Number of primitive Cartesian functions:                                4
       Number of Cartesian basis functions:                                   14
       Number of spherical basis functions:                                   13
       Norm type:                                                              2

       Normalised Cartesian orbitals:

                        Set   Shell   Orbital            Exponent    Coefficient

                          1       1    2s                3.751626      -0.120003
                                                         1.419172       0.428185
                                                         0.322428      -0.228255
                                                         0.110740      -0.068975

                          1       2    3s                3.751626       0.273885
                                                         1.419172      -0.836040
                                                         0.322428       0.584240
                                                         0.110740      -0.261045

                          1       3    3px               3.751626       0.064521
                                                         1.419172       0.216179
                                                         0.322428      -0.253385
                                                         0.110740      -0.035002
                          1       3    3py               3.751626       0.064521
                                                         1.419172       0.216179
                                                         0.322428      -0.253385
                                                         0.110740      -0.035002
                          1       3    3pz               3.751626       0.064521
                                                         1.419172       0.216179
                                                         0.322428      -0.253385
                                                         0.110740      -0.035002

                          1       4    4px               3.751626      -0.201632
                                                         1.419172      -0.391570
                                                         0.322428       0.486065
                                                         0.110740      -0.127990
                          1       4    4py               3.751626      -0.201632
                                                         1.419172      -0.391570
                                                         0.322428       0.486065
                                                         0.110740      -0.127990
                          1       4    4pz               3.751626      -0.201632
                                                         1.419172      -0.391570
                                                         0.322428       0.486065
                                                         0.110740      -0.127990

                          1       5    4dx2              3.751626      -0.158822
                                                         1.419172       0.193543
                                                         0.322428       0.178643
                                                         0.110740       0.009408
                          1       5    4dxy              3.751626      -0.275088
                                                         1.419172       0.335227
                                                         0.322428       0.309418
                                                         0.110740       0.016296
                          1       5    4dxz              3.751626      -0.275088
                                                         1.419172       0.335227
                                                         0.322428       0.309418
                                                         0.110740       0.016296
                          1       5    4dy2              3.751626      -0.158822
                                                         1.419172       0.193543
                                                         0.322428       0.178643
                                                         0.110740       0.009408
                          1       5    4dyz              3.751626      -0.275088
                                                         1.419172       0.335227
                                                         0.322428       0.309418
                                                         0.110740       0.016296
                          1       5    4dz2              3.751626      -0.158822
                                                         1.419172       0.193543
                                                         0.322428       0.178643
                                                         0.110740       0.009408

     Auxiliary Fit Basis Set                                               cFIT6

       Number of orbital shell sets:                                           4
       Number of orbital shells:                                               4
       Number of primitive Cartesian functions:                                6
       Number of Cartesian basis functions:                                    8
       Number of spherical basis functions:                                    8
       Norm type:                                                              2

       Normalised Cartesian orbitals:

                        Set   Shell   Orbital            Exponent    Coefficient

                          1       1    1s                0.110750       0.136826

                          2       1    1s                0.308366      -0.415436
                                                         1.178430       0.610195

                          3       1    1px               0.110745       0.091064
                          3       1    1py               0.110745       0.091064
                          3       1    1pz               0.110745       0.091064

                          4       1    1px               0.339941       0.397306
                                                         1.591237      -0.423312
                          4       1    1py               0.339941       0.397306
                                                         1.591237      -0.423312
                          4       1    1pz               0.339941       0.397306
                                                         1.591237      -0.423312

       Atomic covalent radius [Angstrom]:                                  1.220

       Atomic van der Waals radius [Angstrom]:                             2.110

     GTH Potential information for                                       GTH-PBE

       Description:                       Goedecker-Teter-Hutter pseudopotential
                                           Goedecker et al., PRB 54, 1703 (1996)
                                          Hartwigsen et al., PRB 58, 3641 (1998)
                                                      Krack, TCA 114, 145 (2005)

       Gaussian exponent of the core charge distribution:               1.714678
       Electronic configuration (s p d ...):                               2   2

       Parameters of the local part of the GTH pseudopotential:

                          rloc        C1          C2          C3          C4
                        0.540000

       Parameters of the non-local part of the GTH pseudopotential:

                   l      r(l)      h(i,j,l)

                   0    0.421865    7.510241   -0.588108   -1.447976
                                   -0.588108   -1.595888    3.738657
                                   -1.447976    3.738657   -2.967467
                   1    0.567529    0.913860    0.546875
                                    0.546875   -0.647072
                   2    0.813914    0.197177


 MOLECULE KIND INFORMATION


 All atoms are their own molecule, skipping detailed information


 TOTAL NUMBERS AND MAXIMUM NUMBERS

  Total number of            - Atomic kinds:                                   3
                             - Atoms:                                        128
                             - Shell sets:                                   128
                             - Shells:                                       512
                             - Primitive Cartesian functions:                576
                             - Cartesian basis functions:                   1216
                             - Spherical basis functions:                   1152

  Maximum angular momentum of- Orbital basis functions:                        2
                             - Local part of the GTH pseudopotential:          2
                             - Non-local part of the GTH pseudopotential:      4

  AUX_FIT ADMM-Basis: 
  Total number of            - Shell sets:                                   384
                             - Shells:                                       384
                             - Primitive Cartesian functions:                576
                             - Cartesian basis functions:                    640
                             - Spherical basis functions:                    640
                               Maximum angular momentum                        1


 MODULE QUICKSTEP:  ATOMIC COORDINATES IN angstrom

 Atom  Kind  Element       X           Y           Z          Z(eff)       Mass
    1   1 Si  14       0.279479    2.353641    1.871914       4.0000     28.0855
    2   1 Si  14       2.213956    1.114458    2.347187       4.0000     28.0855
    3   1 Si  14       4.052083    2.248333    1.527191       4.0000     28.0855
    4   1 Si  14       6.009489    1.162737    2.339639       4.0000     28.0855
    5   1 Si  14      -1.877725    5.695601    1.868571       4.0000     28.0855
    6   1 Si  14       0.087887    4.530029    2.651951       4.0000     28.0855
    7   1 Si  14       1.972678    5.810242    1.829921       4.0000     28.0855
    8   1 Si  14       4.100606    4.592642    2.323679       4.0000     28.0855
    9   2 H    1       0.592502    2.438474    0.459770       1.0000      1.0079
   10   2 H    1       2.281607    0.878039    3.807905       1.0000      1.0079
   11   2 H    1       1.797336    3.516716    5.282709       1.0000      1.0079
   12   2 H    1       3.677469    2.282218    8.958804       1.0000      1.0079
   13   2 H    1       4.028923    2.306298    0.070495       1.0000      1.0079
   14   2 H    1       5.789643    0.906337    3.818402       1.0000      1.0079
   15   2 H    1      -1.703755    3.519145    5.048156       1.0000      1.0079
   16   2 H    1      -0.266642    2.883180    9.304581       1.0000      1.0079
   17   2 H    1      -1.663925    5.608075    0.458392       1.0000      1.0079
   18   2 H    1       0.105261    4.459664    4.128829       1.0000      1.0079
   19   2 H    1       3.990915    0.008802    5.162727       1.0000      1.0079
   20   2 H    1       1.776184    6.009512    9.090355       1.0000      1.0079
   21   2 H    1       1.705461    5.879557    0.356276       1.0000      1.0079
   22   2 H    1       4.285448    4.351653    3.847454       1.0000      1.0079
   23   2 H    1       0.152237    0.248917    5.580721       1.0000      1.0079
   24   2 H    1      -2.266110    6.023375    8.767445       1.0000      1.0079
   25   3 Ge  32       1.872366    3.657159    6.846568       4.0000     72.6400
   26   3 Ge  32       3.876888    2.381973    7.397787       4.0000     72.6400
   27   3 Ge  32      -1.941486    3.417445    6.543953       4.0000     72.6400
   28   3 Ge  32      -0.104700    2.615362    7.799626       4.0000     72.6400
   29   3 Ge  32       3.955492    0.063497    6.656705       4.0000     72.6400
   30   3 Ge  32       1.773769    5.976917    7.565211       4.0000     72.6400
   31   3 Ge  32       0.048230    0.260221    7.148243       4.0000     72.6400
   32   3 Ge  32      -2.205999    5.779414    7.242116       4.0000     72.6400
   33   1 Si  14       8.040487    2.275912    1.779679       4.0000     28.0855
   34   1 Si  14      10.074325    1.118005    2.291574       4.0000     28.0855
   35   1 Si  14      12.173241    2.287047    1.798976       4.0000     28.0855
   36   1 Si  14      14.240211    1.209284    2.419750       4.0000     28.0855
   37   1 Si  14       6.165813    5.741602    1.669228       4.0000     28.0855
   38   1 Si  14       8.177553    4.626537    2.467629       4.0000     28.0855
   39   1 Si  14      10.034022    5.741659    1.629819       4.0000     28.0855
   40   1 Si  14      11.982370    4.546642    2.271399       4.0000     28.0855
   41   2 H    1       7.953870    2.575225    0.314381       1.0000      1.0079
   42   2 H    1       9.979987    0.978515    3.790445       1.0000      1.0079
   43   2 H    1       9.513808    3.253792    5.123688       1.0000      1.0079
   44   2 H    1      12.061374    2.041093    8.804282       1.0000      1.0079
   45   2 H    1      12.105206    2.284792    0.341802       1.0000      1.0079
   46   2 H    1      14.183841    0.845897    3.829266       1.0000      1.0079
   47   2 H    1       6.225557    3.474330    5.280856       1.0000      1.0079
   48   2 H    1       7.891839    2.317935    9.118953       1.0000      1.0079
   49   2 H    1       6.361616    5.722613    0.180600       1.0000      1.0079
   50   2 H    1       8.049920    4.707760    4.012954       1.0000      1.0079
   51   2 H    1      12.401937   -0.818493    5.348513       1.0000      1.0079
   52   2 H    1      10.140741    5.793247    8.697283       1.0000      1.0079
   53   2 H    1       9.895085    5.513954    0.116658       1.0000      1.0079
   54   2 H    1      12.025144    4.651094    3.791850       1.0000      1.0079
   55   2 H    1       7.948445    0.198030    5.208352       1.0000      1.0079
   56   2 H    1       5.895755    5.947867    9.016918       1.0000      1.0079
   57   3 Ge  32       9.979281    3.235652    6.613137       4.0000     72.6400
   58   3 Ge  32      12.110794    2.098255    7.214672       4.0000     72.6400
   59   3 Ge  32       6.068681    3.260636    6.738122       4.0000     72.6400
   60   3 Ge  32       8.061124    2.251762    7.620923       4.0000     72.6400
   61   3 Ge  32      12.200177   -0.348418    6.820426       4.0000     72.6400
   62   3 Ge  32       9.746707    5.625841    7.275787       4.0000     72.6400
   63   3 Ge  32       7.932822   -0.003299    6.687541       4.0000     72.6400
   64   3 Ge  32       5.870100    5.676027    7.493749       4.0000     72.6400
   65   1 Si  14      -3.829830    9.155648    1.490478       4.0000     28.0855
   66   1 Si  14      -1.795955    8.091807    2.302676       4.0000     28.0855
   67   1 Si  14       0.187663    9.198765    1.536431       4.0000     28.0855
   68   1 Si  14       2.235389    8.261561    2.128813       4.0000     28.0855
   69   1 Si  14      -5.849271   12.658297    1.433499       4.0000     28.0855
   70   1 Si  14      -3.935594   11.439339    2.103739       4.0000     28.0855
   71   1 Si  14      -1.807586   12.724474    1.525656       4.0000     28.0855
   72   1 Si  14       0.166797   11.561118    2.243738       4.0000     28.0855
   73   2 H    1      -4.100775    8.824406    0.024978       1.0000      1.0079
   74   2 H    1      -2.018235    8.171024    3.799022       1.0000      1.0079
   75   2 H    1      -1.652767   10.475124    5.086352       1.0000      1.0079
   76   2 H    1      -0.406661    8.918337    9.161149       1.0000      1.0079
   77   2 H    1      -0.086692    9.334067    0.088619       1.0000      1.0079
   78   2 H    1       2.085966    8.323282    3.628883       1.0000      1.0079
   79   2 H    1      -6.707191   10.593418    5.458980       1.0000      1.0079
   80   2 H    1      -3.891172    8.820161    8.718194       1.0000      1.0079
   81   2 H    1      -5.823904   12.902166   -0.130254       1.0000      1.0079
   82   2 H    1      -4.018730   11.129299    3.602951       1.0000      1.0079
   83   2 H    1      -0.011378    7.562339    5.004308       1.0000      1.0079
   84   2 H    1      -2.145474   12.671458    8.848284       1.0000      1.0079
   85   2 H    1      -1.992424   12.651526   -0.018185       1.0000      1.0079
   86   2 H    1       0.199126   11.687331    3.797939       1.0000      1.0079
   87   2 H    1      -4.121035    6.622944    4.798346       1.0000      1.0079
   88   2 H    1      -5.473577   12.740715    9.183326       1.0000      1.0079
   89   3 Ge  32      -2.059197   10.308664    6.582960       4.0000     72.6400
   90   3 Ge  32      -0.252086    9.101660    7.572938       4.0000     72.6400
   91   3 Ge  32      -6.210204   10.223542    6.933778       4.0000     72.6400
   92   3 Ge  32      -4.081082    9.046007    7.185979       4.0000     72.6400
   93   3 Ge  32      -0.260364    6.991476    6.454643       4.0000     72.6400
   94   3 Ge  32      -2.039825   12.688279    7.361616       4.0000     72.6400
   95   3 Ge  32      -4.190191    6.813796    6.311708       4.0000     72.6400
   96   3 Ge  32      -5.926257   12.729599    7.711640       4.0000     72.6400
   97   1 Si  14       4.190811    9.254499    1.299051       4.0000     28.0855
   98   1 Si  14       6.049680    8.040928    2.183586       4.0000     28.0855
   99   1 Si  14       8.099486    9.048304    1.474002       4.0000     28.0855
  100   1 Si  14      10.124293    8.081806    2.256344       4.0000     28.0855
  101   1 Si  14       2.078093   12.636741    1.417634       4.0000     28.0855
  102   1 Si  14       4.204531   11.531225    1.995553       4.0000     28.0855
  103   1 Si  14       6.225028   12.657455    1.402939       4.0000     28.0855
  104   1 Si  14       8.118059   11.325818    1.969596       4.0000     28.0855
  105   2 H    1       4.040872    9.210992   -0.204686       1.0000      1.0079
  106   2 H    1       5.863635    8.281731    3.682886       1.0000      1.0079
  107   2 H    1       6.247706   10.215105    5.792686       1.0000      1.0079
  108   2 H    1       8.016553    9.092353    9.725611       1.0000      1.0079
  109   2 H    1       8.039310    8.826824   -0.050127       1.0000      1.0079
  110   2 H    1      10.138199    8.110864    3.724466       1.0000      1.0079
  111   2 H    1       1.877453   10.133922    5.324670       1.0000      1.0079
  112   2 H    1       3.584650    8.972102    9.174197       1.0000      1.0079
  113   2 H    1       1.952445   12.783166   -0.044685       1.0000      1.0079
  114   2 H    1       4.341456   11.319563    3.459874       1.0000      1.0079
  115   2 H    1       8.152932    7.540874    5.540415       1.0000      1.0079
  116   2 H    1       6.235539   12.838702    9.584959       1.0000      1.0079
  117   2 H    1       6.440979   12.954457   -0.031278       1.0000      1.0079
  118   2 H    1       8.081065   11.238171    3.479200       1.0000      1.0079
  119   2 H    1       3.969742    6.776947    5.352210       1.0000      1.0079
  120   2 H    1       2.166928   12.706722    9.014382       1.0000      1.0079
  121   3 Ge  32       6.018235   10.348711    7.395006       4.0000     72.6400
  122   3 Ge  32       7.903767    8.999432    8.226558       4.0000     72.6400
  123   3 Ge  32       1.785376   10.178887    6.920650       4.0000     72.6400
  124   3 Ge  32       3.863803    9.086768    7.714176       4.0000     72.6400
  125   3 Ge  32       7.780942    6.919819    6.830591       4.0000     72.6400
  126   3 Ge  32       6.232392   12.638836    8.013653       4.0000     72.6400
  127   3 Ge  32       3.871585    6.882068    6.858960       4.0000     72.6400
  128   3 Ge  32       2.061727   12.605348    7.488231       4.0000     72.6400




 SCF PARAMETERS         Density guess:                                   RESTART
                        --------------------------------------------------------
                        max_scf:                                              50
                        max_scf_history:                                       0
                        max_diis:                                              4
                        --------------------------------------------------------
                        eps_scf:                                        1.00E-06
                        eps_scf_history:                                0.00E+00
                        eps_diis:                                       1.00E-01
                        eps_eigval:                                     1.00E-05
                        --------------------------------------------------------
                        level_shift [a.u.]:                                 0.00
                        added MOs                                        50    0
                        --------------------------------------------------------
                        Mixing method:                            BROYDEN_MIXING
                                                charge density mixing in g-space
                        --------------------------------------------------------
                        No outer SCF

 PW_GRID| Information for grid number                                          1
 PW_GRID| Grid distributed over                                    40 processors
 PW_GRID| Real space group dimensions                                    40    1
 PW_GRID| the grid is blocked:                                                NO
 PW_GRID| Cutoff [a.u.]                                                    175.0
 PW_GRID| spherical cutoff:                                                   NO
 PW_GRID|   Bounds   1            -90      89                Points:         180
 PW_GRID|   Bounds   2            -90      89                Points:         180
 PW_GRID|   Bounds   3           -180     179                Points:         360
 PW_GRID| Volume element (a.u.^3)  0.3784E-02     Volume (a.u.^3)     44134.1676
 PW_GRID| Grid span                                                    FULLSPACE
 PW_GRID|   Distribution                         Average         Max         Min
 PW_GRID|   G-Vectors                           291600.0      291600      291600
 PW_GRID|   G-Rays                                1620.0        1620        1620
 PW_GRID|   Real Space Points                   291600.0      324000      259200

 PW_GRID| Information for grid number                                          2
 PW_GRID| Number of the reference grid                                         1
 PW_GRID| Grid distributed over                                    40 processors
 PW_GRID| Real space group dimensions                                    40    1
 PW_GRID| the grid is blocked:                                                NO
 PW_GRID| Cutoff [a.u.]                                                     58.3
 PW_GRID| spherical cutoff:                                                   NO
 PW_GRID|   Bounds   1            -54      53                Points:         108
 PW_GRID|   Bounds   2            -54      53                Points:         108
 PW_GRID|   Bounds   3           -100      99                Points:         200
 PW_GRID| Volume element (a.u.^3)  0.1892E-01     Volume (a.u.^3)     44134.1676
 PW_GRID| Grid span                                                    FULLSPACE
 PW_GRID|   Distribution                         Average         Max         Min
 PW_GRID|   G-Vectors                            58320.0       59724       57024
 PW_GRID|   G-Rays                                 540.0         553         528
 PW_GRID|   Real Space Points                    58320.0       64800       43200

 PW_GRID| Information for grid number                                          3
 PW_GRID| Number of the reference grid                                         1
 PW_GRID| Grid distributed over                                    40 processors
 PW_GRID| Real space group dimensions                                    40    1
 PW_GRID| the grid is blocked:                                                NO
 PW_GRID| Cutoff [a.u.]                                                     19.4
 PW_GRID| spherical cutoff:                                                   NO
 PW_GRID|   Bounds   1            -30      29                Points:          60
 PW_GRID|   Bounds   2            -30      29                Points:          60
 PW_GRID|   Bounds   3            -60      59                Points:         120
 PW_GRID| Volume element (a.u.^3)  0.1022         Volume (a.u.^3)     44134.1676
 PW_GRID| Grid span                                                    FULLSPACE
 PW_GRID|   Distribution                         Average         Max         Min
 PW_GRID|   G-Vectors                            10800.0       11040       10380
 PW_GRID|   G-Rays                                 180.0         184         173
 PW_GRID|   Real Space Points                    10800.0       14400        7200

 PW_GRID| Information for grid number                                          4
 PW_GRID| Number of the reference grid                                         1
 PW_GRID| Grid distributed over                                    40 processors
 PW_GRID| Real space group dimensions                                     5    8
 PW_GRID| the grid is blocked:                                                NO
 PW_GRID| Cutoff [a.u.]                                                      6.5
 PW_GRID| spherical cutoff:                                                   NO
 PW_GRID|   Bounds   1            -18      17                Points:          36
 PW_GRID|   Bounds   2            -18      17                Points:          36
 PW_GRID|   Bounds   3            -36      35                Points:          72
 PW_GRID| Volume element (a.u.^3)  0.4730         Volume (a.u.^3)     44134.1676
 PW_GRID| Grid span                                                    FULLSPACE
 PW_GRID|   Distribution                         Average         Max         Min
 PW_GRID|   G-Vectors                             2332.8        2520        2160
 PW_GRID|   G-Rays                                  64.8          70          60
 PW_GRID|   Real Space Points                     2332.8        2880        2016

 POISSON| Solver                                                        PERIODIC
 POISSON| Periodicity                                                        XYZ

 RS_GRID| Information for grid number                                          1
 RS_GRID|   Bounds   1            -90      89                Points:         180
 RS_GRID|   Bounds   2            -90      89                Points:         180
 RS_GRID|   Bounds   3           -180     179                Points:         360
 RS_GRID| Real space distribution over                                  4 groups
 RS_GRID| Real space distribution along direction                              2
 RS_GRID| Border size                                                         38
 RS_GRID| Real space distribution over                                 10 groups
 RS_GRID| Real space distribution along direction                              3
 RS_GRID| Border size                                                         38
 RS_GRID|   Distribution                         Average         Max         Min
 RS_GRID|   Planes                                 121.0         121         121
 RS_GRID|   Distribution                         Average         Max         Min
 RS_GRID|   Planes                                 112.0         112         112

 RS_GRID| Information for grid number                                          2
 RS_GRID|   Bounds   1            -54      53                Points:         108
 RS_GRID|   Bounds   2            -54      53                Points:         108
 RS_GRID|   Bounds   3           -100      99                Points:         200
 RS_GRID| Real space distribution over                                  4 groups
 RS_GRID| Real space distribution along direction                              2
 RS_GRID| Border size                                                         38
 RS_GRID| Real space distribution over                                 10 groups
 RS_GRID| Real space distribution along direction                              3
 RS_GRID| Border size                                                         38
 RS_GRID|   Distribution                         Average         Max         Min
 RS_GRID|   Planes                                 103.0         103         103
 RS_GRID|   Distribution                         Average         Max         Min
 RS_GRID|   Planes                                  96.0          96          96

 RS_GRID| Information for grid number                                          3
 RS_GRID|   Bounds   1            -30      29                Points:          60
 RS_GRID|   Bounds   2            -30      29                Points:          60
 RS_GRID|   Bounds   3            -60      59                Points:         120
 RS_GRID| Real space fully replicated
 RS_GRID| Group size                                                           1

 RS_GRID| Information for grid number                                          4
 RS_GRID|   Bounds   1            -18      17                Points:          36
 RS_GRID|   Bounds   2            -18      17                Points:          36
 RS_GRID|   Bounds   3            -36      35                Points:          72
 RS_GRID| Real space fully replicated
 RS_GRID| Group size                                                           1

  HFX_INFO| Replica ID:                                                        1
  HFX_INFO| FRACTION:                                               0.2000000000
  HFX_INFO| Interaction Potential:                                     TRUNCATED
  HFX_INFO| Cutoff Radius [angstrom]:                               6.0000000000
  HFX_INFO| EPS_SCHWARZ:                                                 1.0E-08
  HFX_INFO| EPS_SCHWARZ_FORCES                                           1.0E-06
  HFX_INFO| EPS_STORAGE_SCALING:                                         1.0E-01
  HFX_INFO| NBINS:                                                            64
  HFX_INFO| BLOCK_SIZE:                                                        2
  HFX_INFO| NUMBER_OF_SHELLS:                                               AUTO
  HFX_INFO| Number of periodic shells considered:                             -1
  HFX_INFO| Number of periodic cells considered:                              27


 Number of electrons:                                                        320
 Number of occupied orbitals:                                                160
 Number of molecular orbitals:                                               210

 Number of orbital functions:                                               1152
 Number of independent orbital functions:                                   1152

 Extrapolation method: initial_guess

 *** WARNING in qs_initial_guess.F:309 :: User requested to restart the    ***
 *** wavefunction from the file named: Diag_libra-2005-RESTART.wfn. This   ***
 *** file does not exist. Please check the existence of the file or change ***
 *** properly the value of the keyword WFN_RESTART_FILE_NAME. Calculation  ***
 *** continues using ATOMIC GUESS.                                         ***


 Atomic guess: The first density matrix is obtained in terms of atomic orbitals
               and electronic configurations assigned to each atomic kind

 Guess for atomic kind: Si

 Electronic structure
    Total number of core electrons                                         10.00
    Total number of valence electrons                                       4.00
    Total number of electrons                                              14.00
    Multiplicity                                                   not specified
    S   [  2.00  2.00] 2.00
    P   [  6.00] 2.00


 *******************************************************************************
                  Iteration          Convergence                     Energy [au]
 *******************************************************************************
                          1        0.526541E-01                  -3.659692963728
                          2        0.125823E-01                  -3.661785675622
                          3        0.408986E-04                  -3.661911567360
                          4        0.675570E-07                  -3.661911568709

 Energy components [Hartree]           Total Energy ::           -3.661911568709
                                        Band Energy ::           -0.941881516273
                                     Kinetic Energy ::            1.409736465412
                                   Potential Energy ::           -5.071648034121
                                      Virial (-V/T) ::            3.597585902439
                                        Core Energy ::           -5.690149137281
                                          XC Energy ::           -0.992569238249
                                     Coulomb Energy ::            3.020806806821
                       Total Pseudopotential Energy ::           -7.143143335066
                       Local Pseudopotential Energy ::           -8.006124475851
                    Nonlocal Pseudopotential Energy ::            0.862981140786
                                        Confinement ::            0.432577323720

 Orbital energies  State     L     Occupation   Energy[a.u.]          Energy[eV]

                       1     0          2.000      -0.357276           -9.721984

                       1     1          2.000      -0.113664           -3.092965


 Total Electron Density at R=0:                                         0.000026

 Guess for atomic kind: H

 Electronic structure
    Total number of core electrons                                          0.00
    Total number of valence electrons                                       1.00
    Total number of electrons                                               1.00
    Multiplicity                                                   not specified
    S      1.00


 *******************************************************************************
                  Iteration          Convergence                     Energy [au]
 *******************************************************************************
                          1        0.250972E-02                  -0.375256815885
                          2        0.570752E-04                  -0.375258666164
                          3        0.832405E-09                  -0.375258667122

 Energy components [Hartree]           Total Energy ::           -0.375258667122
                                        Band Energy ::           -0.076317618391
                                     Kinetic Energy ::            0.771356566341
                                   Potential Energy ::           -1.146615233463
                                      Virial (-V/T) ::            1.486491829455
                                        Core Energy ::           -0.456090715790
                                          XC Energy ::           -0.314218627334
                                     Coulomb Energy ::            0.395050676003
                       Total Pseudopotential Energy ::           -1.238482237174
                       Local Pseudopotential Energy ::           -1.238482237174
                    Nonlocal Pseudopotential Energy ::            0.000000000000
                                        Confinement ::            0.110349550431

 Orbital energies  State     L     Occupation   Energy[a.u.]          Energy[eV]

                       1     0          1.000      -0.076318           -2.076708


 Total Electron Density at R=0:                                         0.425022

 Guess for atomic kind: Ge

 Electronic structure
    Total number of core electrons                                         28.00
    Total number of valence electrons                                       4.00
    Total number of electrons                                              32.00
    Multiplicity                                                   not specified
    S   [  2.00  2.00  2.00] 2.00
    P   [  6.00  6.00] 2.00
    D   [ 10.00]


 *******************************************************************************
                  Iteration          Convergence                     Energy [au]
 *******************************************************************************
                          1        0.142224                      -3.669910672039
                          2        0.333188E-01                  -3.687823698339
                          3        0.522642E-04                  -3.688875018994
                          4        0.333285E-05                  -3.688875020047
                          5        0.154106E-05                  -3.688875020053
                          6        0.996835E-06                  -3.688875020055

 Energy components [Hartree]           Total Energy ::           -3.688875020055
                                        Band Energy ::           -0.991816616960
                                     Kinetic Energy ::            1.446010121603
                                   Potential Energy ::           -5.134885141658
                                      Virial (-V/T) ::            3.551071368687
                                        Core Energy ::           -5.696847161393
                                          XC Energy ::           -0.988567154744
                                     Coulomb Energy ::            2.996539296082
                       Total Pseudopotential Energy ::           -7.185566698510
                       Local Pseudopotential Energy ::           -7.622158091196
                    Nonlocal Pseudopotential Energy ::            0.436591392686
                                        Confinement ::            0.427094155139

 Orbital energies  State     L     Occupation   Energy[a.u.]          Energy[eV]

                       1     0          2.000      -0.391724          -10.659354

                       1     1          2.000      -0.104184           -2.834997


 Total Electron Density at R=0:                                         0.000078
 Re-scaling the density matrix to get the right number of electrons
                  # Electrons              Trace(P)               Scaling factor
                          320               320.000                        1.000


 SCF WAVEFUNCTION OPTIMIZATION

  Step     Update method      Time    Convergence         Total energy    Change
  ------------------------------------------------------------------------------

  HFX_MEM_INFO| Est. max. program size before HFX [MiB]:                     517

 *** WARNING in hfx_energy_potential.F:591 :: The Kohn Sham matrix is not  ***
 *** 100% occupied. This may result in incorrect Hartree-Fock results. Try ***
 *** to decrease EPS_PGF_ORB and EPS_FILTER_MATRIX in the QS section. For  ***
 *** more information see FAQ: https://www.cp2k.org/faq:hfx_eps_warning    ***

  HFX_MEM_INFO| Number of cart. primitive ERI's calculated:          16125305655
  HFX_MEM_INFO| Number of sph. ERI's calculated:                      4158947828
  HFX_MEM_INFO| Number of sph. ERI's stored in-core:                  4158947516
  HFX_MEM_INFO| Number of sph. ERI's stored on disk:                           0
  HFX_MEM_INFO| Number of sph. ERI's calculated on the fly:                    0
  HFX_MEM_INFO| Total memory consumption ERI's RAM [MiB]:                   6534
  HFX_MEM_INFO| Whereof max-vals [MiB]:                                      278
  HFX_MEM_INFO| Total compression factor ERI's RAM:                         4.86
  HFX_MEM_INFO| Total memory consumption ERI's disk [MiB]:                     0
  HFX_MEM_INFO| Total compression factor ERI's disk:                        0.00
  HFX_MEM_INFO| Size of density/Fock matrix [MiB]:                             2
  HFX_MEM_INFO| Size of buffers [MiB]:                                         1
  HFX_MEM_INFO| Number of periodic image cells considered:                    27
  HFX_MEM_INFO| Est. max. program size after HFX  [MiB]:                     680

     1 NoMix/Diag. 0.30E+00   46.7     1.29462318      -266.0130826194 -2.66E+02
     2 Broy./Diag. 0.30E+00    6.5     0.68938204      -276.1400880530 -1.01E+01
     3 Broy./Diag. 0.30E+00    6.3     0.39191373      -281.7825990887 -5.64E+00
     4 Broy./Diag. 0.30E+00    6.2     0.08146241      -284.5503850934 -2.77E+00
     5 Broy./Diag. 0.30E+00    6.4     0.03550743      -286.3088262945 -1.76E+00
     6 Broy./Diag. 0.30E+00    6.3     0.01542749      -287.3958205925 -1.09E+00
     7 Broy./Diag. 0.30E+00    6.5     0.00653906      -287.7906799855 -3.95E-01
     8 Broy./Diag. 0.30E+00    6.2     0.00767841      -287.7814528918  9.23E-03
     9 Broy./Diag. 0.30E+00    6.5     0.00520747      -287.8297104756 -4.83E-02
    10 Broy./Diag. 0.30E+00    6.3     0.00776384      -287.8468378665 -1.71E-02
    11 Broy./Diag. 0.30E+00    6.3     0.00475416      -287.8427399742  4.10E-03
    12 Broy./Diag. 0.30E+00    6.5     0.00319100      -287.9101636886 -6.74E-02
    13 Broy./Diag. 0.30E+00    6.3     0.00122040      -287.9522663678 -4.21E-02
    14 Broy./Diag. 0.30E+00    6.5     0.00183222      -287.9481664463  4.10E-03
    15 Broy./Diag. 0.30E+00    6.2     0.00074536      -287.9533010505 -5.13E-03
    16 Broy./Diag. 0.30E+00    6.5     0.00129401      -287.9488881823  4.41E-03
    17 Broy./Diag. 0.30E+00    6.5     0.00056939      -287.9460607787  2.83E-03
    18 Broy./Diag. 0.30E+00    6.3     0.00042320      -287.9422883910  3.77E-03
    19 Broy./Diag. 0.30E+00    6.5     0.00038771      -287.9421496013  1.39E-04
    20 Broy./Diag. 0.30E+00    6.3     0.00011247      -287.9468536380 -4.70E-03
    21 Broy./Diag. 0.30E+00    6.5     0.00010498      -287.9490568329 -2.20E-03
    22 Broy./Diag. 0.30E+00    6.3     0.00008075      -287.9489570026  9.98E-05
    23 Broy./Diag. 0.30E+00    6.6     0.00007676      -287.9490475039 -9.05E-05
    24 Broy./Diag. 0.30E+00    6.3     0.00007218      -287.9491487661 -1.01E-04
    25 Broy./Diag. 0.30E+00    6.3     0.00005118      -287.9498714898 -7.23E-04
    26 Broy./Diag. 0.30E+00    6.5     0.00003803      -287.9502474839 -3.76E-04
    27 Broy./Diag. 0.30E+00    6.3     0.00002211      -287.9504527012 -2.05E-04
    28 Broy./Diag. 0.30E+00    6.5     0.00001509      -287.9510332170 -5.81E-04
    29 Broy./Diag. 0.30E+00    6.3     0.00000858      -287.9514371118 -4.04E-04
    30 Broy./Diag. 0.30E+00    6.6     0.00001389      -287.9514558567 -1.87E-05
    31 Broy./Diag. 0.30E+00    6.3     0.00001312      -287.9514138420  4.20E-05
    32 Broy./Diag. 0.30E+00    6.3     0.00000384      -287.9513644430  4.94E-05
    33 Broy./Diag. 0.30E+00    6.5     0.00001303      -287.9513745500 -1.01E-05
    34 Broy./Diag. 0.30E+00    6.3     0.00000471      -287.9514251886 -5.06E-05
    35 Broy./Diag. 0.30E+00    6.5     0.00000182      -287.9514506198 -2.54E-05
    36 Broy./Diag. 0.30E+00    6.3     0.00000200      -287.9514615288 -1.09E-05
    37 Broy./Diag. 0.30E+00    6.3     0.00000100      -287.9514811697 -1.96E-05
    38 Broy./Diag. 0.30E+00    6.7     0.00000049      -287.9514887231 -7.55E-06

  *** SCF run converged in    38 steps ***


  Electronic density on regular grids:       -319.9999999982        0.0000000018
  Core density on regular grids:              319.9999999279       -0.0000000721
  Total charge density on r-space grids:       -0.0000000703
  Total charge density g-space grids:          -0.0000000703

  Overlap energy of the core charge distribution:               0.00002363949949
  Self energy of the core charge distribution:               -685.99374549079380
  Core Hamiltonian energy:                                    163.86105975138858
  Hartree energy:                                             331.64061615813108
  Exchange-correlation energy:                                -79.83981588921714
  Hartree-Fock Exchange energy:                               -17.17266382281033
  Dispersion energy:                                           -0.44696306928732

  Total energy:                                              -287.95148872308943

   Calculate PDOS at iteration step                                  0

              ---- PDOS: start iteration on the KS states --- 

 *******************************************************************************
 **                                                                           **
 **         ######## #######   #######   ######## #######  ########           **
 **            ##    ##     ## ##     ## ##       ##   ##     ##              **
 **            ##    ##     ## ##     ## ######   #######     ##              **
 **            ##    ##     ## ##     ## ##       ##          ##              **
 **            ##    #######   #######   ##       ##          ##              **
 **                                                                           **
 *******************************************************************************
 
 -------------------------------------------------------------------------------
 -                            TDDFPT Initial Guess                             -
 -------------------------------------------------------------------------------
          State         Occupied      ->      Virtual          Excitation
          number         orbital              orbital          energy (eV)
 -------------------------------------------------------------------------------
             1              160                  161              1.87198
             2              159                  161              2.02047
             3              160                  162              2.05230
             4              160                  163              2.08670
             5              160                  164              2.15148
             6              159                  162              2.20078
             7              160                  165              2.21760
             8              159                  163              2.23519
             9              159                  164              2.29997
            10              159                  165              2.36609
            11              160                  166              2.42177
            12              160                  167              2.46405
            13              160                  168              2.55151
            14              159                  166              2.57026
            15              160                  169              2.57212
            16              160                  170              2.61159
            17              159                  167              2.61254
            18              160                  171              2.65163
            19              160                  172              2.66311
            20              159                  168              2.70000

      Number of active states:                                     158720
 -------------------------------------------------------------------------------
 
 -------------------------------------------------------------------------------
 -                      TDDFPT WAVEFUNCTION OPTIMIZATION                       -
 -------------------------------------------------------------------------------

          Step            Time         Convergence           Conv. states
 -------------------------------------------------------------------------------

    State    Exc. energy (eV)      Convergence (eV)
        1       1.6254009            -2.4658E-01
        2       1.7709777            -2.4949E-01
        3       1.8424547            -2.0984E-01
        4       1.9936086            -9.3092E-02
        5       2.0026166            -1.4886E-01
        6       2.0508214            -1.4996E-01
        7       2.1157625            -1.0184E-01
        8       2.1560556            -7.9134E-02
        9       2.2077698            -9.2197E-02
       10       2.2283571            -1.3773E-01
       11       2.2739148            -1.4785E-01
       12       2.2813032            -1.8275E-01
       13       2.3618201            -1.8969E-01
       14       2.3913517            -1.7890E-01
       15       2.3997210            -1.7240E-01
       16       2.4859306            -1.2566E-01
       17       2.4874765            -1.2506E-01
       18       2.5322646            -1.1937E-01
       19       2.5351312            -1.2798E-01
       20       2.5732966            -1.2670E-01

             1           123.1          9.1687E-03                      0

    State    Exc. energy (eV)      Convergence (eV)
        1       1.5890130            -3.6388E-02
        2       1.7322095            -3.8768E-02
        3       1.8359141            -6.5406E-03
        4       1.9865530            -7.0556E-03
        5       1.9929015            -9.7151E-03
        6       2.0373816            -1.3440E-02
        7       2.1013298            -1.4433E-02
        8       2.1473950            -8.6606E-03
        9       2.1869381            -2.0832E-02
       10       2.1986538            -2.9703E-02
       11       2.2437255            -3.0189E-02
       12       2.2562969            -2.5006E-02
       13       2.3453736            -1.6447E-02
       14       2.3549968            -3.6355E-02
       15       2.3845909            -1.5130E-02
       16       2.4359215            -5.0009E-02
       17       2.4442386            -4.3238E-02
       18       2.4850514            -4.7213E-02
       19       2.5220644            -1.3067E-02
       20       2.5377472            -3.5549E-02

             2           124.1          1.8378E-03                      0

    State    Exc. energy (eV)      Convergence (eV)
        1       1.5826355            -6.3776E-03
        2       1.7253788            -6.8306E-03
        3       1.8353353            -5.7880E-04
        4       1.9859264            -6.2666E-04
        5       1.9919750            -9.2650E-04
        6       2.0355366            -1.8450E-03
        7       2.0992584            -2.0714E-03
        8       2.1456701            -1.7250E-03
        9       2.1834601            -3.4780E-03
       10       2.1945989            -4.0548E-03
       11       2.2351366            -8.5889E-03
       12       2.2521370            -4.1599E-03
       13       2.3348526            -1.0521E-02
       14       2.3495568            -5.4400E-03
       15       2.3788549            -5.7361E-03
       16       2.3832695            -5.2652E-02
       17       2.3895519            -5.4687E-02
       18       2.4683770            -1.6674E-02
       19       2.4791972            -4.2867E-02
       20       2.5179419            -1.9805E-02

             3           123.3          2.0097E-03                      0

[...]
 flops     5 x    18 x    13             19169280       0.0%    100.0%      0.0%
 flops     8 x     2 x    18             42615936       0.0%    100.0%      0.0%
 flops     2 x     8 x    18             42922368       0.0%    100.0%      0.0%
 flops    13 x    18 x    13             49840128       0.0%    100.0%      0.0%
 flops     5 x     5 x    18             72867600       0.0%    100.0%      0.0%
 flops     5 x     1 x     5             76036800       0.0%    100.0%      0.0%
 flops     2 x     2 x    32            105937920       0.0%    100.0%      0.0%
 flops     8 x     8 x    18            182108160       0.0%    100.0%      0.0%
 flops     5 x    13 x    18            186900480       0.0%    100.0%      0.0%
 flops    13 x     5 x    18            186900480       0.0%    100.0%      0.0%
 flops     5 x     1 x    13            198082560       0.0%    100.0%      0.0%
 flops    13 x     1 x     5            198082560       0.0%    100.0%      0.0%
 flops   283 x   111 x    32            381982080       0.0%    100.0%      0.0%
 flops   286 x   111 x    32            386031360       0.0%    100.0%      0.0%
 flops   288 x   111 x    32            388730880       0.0%    100.0%      0.0%
 flops   295 x   111 x    32            398179200       0.0%    100.0%      0.0%
 flops     8 x     2 x    32            454569984       0.0%    100.0%      0.0%
 flops     2 x     8 x    32            457838592       0.0%    100.0%      0.0%
 flops    13 x    13 x    18            493534080       0.0%    100.0%      0.0%
 flops    13 x     1 x    13            515014656       0.0%    100.0%      0.0%
 flops     5 x     5 x    32            777254400       0.0%    100.0%      0.0%
 flops   283 x   113 x    32           1166593920       0.0%    100.0%      0.0%
 flops   286 x   113 x    32           1178960640       0.0%    100.0%      0.0%
 flops   288 x   113 x    32           1187205120       0.0%    100.0%      0.0%
 flops   283 x   116 x    32           1197565440       0.0%    100.0%      0.0%
 flops   286 x   116 x    32           1210260480       0.0%    100.0%      0.0%
 flops   295 x   113 x    32           1216060800       0.0%    100.0%      0.0%
 flops   283 x   118 x    32           1218213120       0.0%    100.0%      0.0%
 flops   288 x   116 x    32           1218723840       0.0%    100.0%      0.0%
 flops   286 x   118 x    32           1231127040       0.0%    100.0%      0.0%
 flops   288 x   118 x    32           1239736320       0.0%    100.0%      0.0%
 flops   295 x   116 x    32           1248345600       0.0%    100.0%      0.0%
 flops   295 x   118 x    32           1269868800       0.0%    100.0%      0.0%
 flops     8 x     8 x    32           1942487040       0.0%    100.0%      0.0%
 flops     5 x    13 x    32           1993605120       0.0%    100.0%      0.0%
 flops    13 x     5 x    32           1993605120       0.0%    100.0%      0.0%
 flops    13 x    13 x    32           5264363520       0.0%    100.0%      0.0%
 flops     2 x    32 x     2           6572851200       0.0%    100.0%      0.0%
 flops     5 x    32 x     5          28053491200       0.0%    100.0%      0.0%
 flops     2 x    32 x     8          28812902400       0.0%    100.0%      0.0%
 flops     8 x    32 x     2          28812902400       0.0%    100.0%      0.0%
 flops     5 x    32 x    13          73081815040       0.0%    100.0%      0.0%
 flops    13 x    32 x     5          73081815040       0.0%    100.0%      0.0%
 flops     8 x    32 x     8         120795955200       0.0%    100.0%      0.0%
 flops    13 x    32 x    13         190012719104       0.0%    100.0%      0.0%
 flops inhomo. stacks                           0       0.0%      0.0%      0.0%
 flops total                       580.652232E+09       0.0%    100.0%      0.0%
 flops max/rank                     24.676313E+09       0.0%    100.0%      0.0%
 matmuls inhomo. stacks                         0       0.0%      0.0%      0.0%
 matmuls total                          192138882       0.0%    100.0%      0.0%
 number of processed stacks               2212560       0.0%    100.0%      0.0%
 average stack size                                     0.0      86.8       0.0
 marketing flops                   591.794995E+09
 -------------------------------------------------------------------------------
 # multiplications                           1534
 max memory usage/rank             862.654464E+06
 # max total images/rank                        5
 # max 3D layers                                1
 # MPI messages exchanged                 2024880
 MPI messages size (bytes):
  total size                       131.664060E+09
  min size                           0.000000E+00
  max size                         176.800000E+03
  average size                      65.023141E+03
 MPI breakdown and total messages size (bytes):
             size <=      128              557826                        0
       128 < size <=     8192               22380                 10744704
      8192 < size <=    32768              387318               7396060032
     32768 < size <=   131072              618516              61573032144
    131072 < size <=  4194304              438840              62674251120
   4194304 < size <= 16777216                   0                        0
  16777216 < size                               0                        0
 -------------------------------------------------------------------------------

 *** WARNING in dbcsr_mm.F:294 :: Using a non-square number of MPI ranks ***
 *** might lead to poor performance. Used ranks: 40 Suggested: 36 81     ***

 -------------------------------------------------------------------------------
 -                                                                             -
 -                      DBCSR MESSAGE PASSING PERFORMANCE                      -
 -                                                                             -
 -------------------------------------------------------------------------------
 ROUTINE             CALLS      AVE VOLUME [Bytes]
 MP_Bcast               49                     12.
 MP_Allreduce         5262                      8.
 MP_Alltoall         48446                  31986.
 MP_ISend           116354                  32059.
 MP_IRecv           122260                  30024.
 -------------------------------------------------------------------------------

 -------------------------------------------------------------------------------
 -                                                                             -
 -                                GRID STATISTICS                              -
 -                                                                             -
 -------------------------------------------------------------------------------
 LP    KERNEL             BACKEND                              COUNT     PERCENT
 1     collocate general  REF                                8916612      16.34%
 3     collocate general  REF                                8785920      16.10%
 3     integrate general  REF                                8712704      15.97%
 0     collocate general  REF                                7324017      13.42%
 2     collocate general  REF                                7293486      13.37%
 2     integrate general  REF                                4589116       8.41%
 4     collocate general  REF                                4492800       8.23%
 4     integrate general  REF                                4455360       8.16%
 -------------------------------------------------------------------------------

 MEMORY| Estimated peak process memory [MiB]                                 823

 -------------------------------------------------------------------------------
 ----                             MULTIGRID INFO                            ----
 -------------------------------------------------------------------------------
 count for grid        1:         222287          cutoff [a.u.]          175.00
 count for grid        2:         200142          cutoff [a.u.]           58.33
 count for grid        3:         186234          cutoff [a.u.]           19.44
 count for grid        4:          73842          cutoff [a.u.]            6.48
 total gridlevel count  :         682505

 -------------------------------------------------------------------------------
 -                                                                             -
 -                         MESSAGE PASSING PERFORMANCE                         -
 -                                                                             -
 -------------------------------------------------------------------------------

 ROUTINE             CALLS      AVE VOLUME [Bytes]
 MP_Group                4
 MP_Bcast              688                1617711.
 MP_Allreduce        22483                    306.
 MP_Sync              1337
 MP_Alltoall          7156               10306781.
 MP_ISendRecv        74568                  63193.
 MP_Wait            149289
 MP_comm_split          70
 MP_ISend            67444                 299674.
 MP_IRecv            68264                 297176.
 MP_Recv               378                 149650.
 -------------------------------------------------------------------------------


 -------------------------------------------------------------------------------
 -                                                                             -
 -                           R E F E R E N C E S                               -
 -                                                                             -
 -------------------------------------------------------------------------------
 
 CP2K version 9.1, the CP2K developers group (2021).
 CP2K is freely available from https://www.cp2k.org/ .

 Kuehne,Thomas D.; Iannuzzi,Marcella; Del Ben,Mauro;
 Rybkin,Vladimir V.; Seewald,Patrick; Stein,Frederick; Laino,Teodoro;
 Khaliullin,Rustam Z.; Schuett,Ole; Schiffmann,Florian; Golze,Dorothea;
 Wilhelm,Jan; Chulkov,Sergey; Bani-Hashemian,Mohammad Hossein;
 Weber,Valery; Borstnik,Urban; Taillefumier,Mathieu;
 Jakobovits,Alice Shoshana; Lazzaro,Alfio; Pabst,Hans; Mueller,Tiziano;
 Schade,Robert; Guidon,Manuel; Andermatt,Samuel; Holmberg,Nico;
 Schenter,Gregory K.; Hehn,Anna; Bussy,Augustin; Belleflamme,Fabian;
 Tabacchi,Gloria; Gloess,Andreas; Lass,Michael; Bethune,Iain;
 Mundy,Christopher J.; Plessl,Christian; Watkins,Matt;
 VandeVondele,Joost; Krack,Matthias; Hutter,Juerg. 
 The Journal of Chemical Physics, 152 (19), (2020). 
 CP2K: An electronic structure and molecular dynamics software package -
 Quickstep: Efficient and accurate electronic structure calculations.
 https://doi.org/10.1063/5.0007045

 Goerigk, Lars; Hansen, Andreas; Bauer, Christoph; Ehrlich, Stephan;
 Najibi, Asim; Grimme, Stefan. , 19 (48), (2017). 
 A look at the density functional theory zoo with the advanced GMTKN55 database
 for general main group thermochemistry, kinetics and noncovalent interactions.
 https://doi.org/10.1039/C7CP04913G

 Schuett, Ole; Messmer, Peter; Hutter, Juerg; VandeVondele, Joost. 
 Electronic Structure Calculations on Graphics Processing Units, John
 Wiley & Sons, Ltd, 173-190 (2016). 
 GPU-Accelerated Sparse Matrix-Matrix Multiplication for
 Linear Scaling Density Functional Theory.
 https://doi.org/10.1002/9781118670712.ch8

 Heinecke, A; Henry, G; Hutchinson, M; Pabst, H. 
 Proceedings of Intl. Supercomputing Conference, 981-991 (2016). 
 LIBXSMM: Accelerating Small Matrix Multiplications
 by Runtime Code Generation.
 https://doi.org/10.1109/SC.2016.83

 Borstnik, U; VandeVondele, J; Weber, V; Hutter, J. 
 PARALLEL COMPUTING, 40 (5-6), 47-58 (2014). 
 Sparse matrix multiplication: The distributed block-compressed sparse
 row library.
 https://doi.org/10.1016/j.parco.2014.03.012

 Hutter, J; Iannuzzi, M; Schiffmann, F; VandeVondele, J. 
 WIREs Comput Mol Sci., 4 (1), 15-25 (2014). 
 CP2K: atomistic simulations of condensed matter systems.
 https://doi.org/10.1002/wcms.1159

 Grimme, S; Ehrlich, S; Goerigk, L. 
 JOURNAL OF COMPUTATIONAL CHEMISTRY, 32, 1456 (2011). 
 Effect of the damping function in dispersion corrected density functional theory.
 https://doi.org/10.1002/jcc.21759

 Guidon, M; Hutter, J; VandeVondele, J. 
 JOURNAL OF CHEMICAL THEORY AND COMPUTATION, 6 (8), 2348-2364 (2010). 
 Auxiliary Density Matrix Methods for Hartree-Fock Exchange Calculations.
 https://doi.org/10.1021/ct1002225

 Grimme, S; Antony, J; Ehrlich, S; Krieg, H. 
 JOURNAL OF CHEMICAL PHYSICS, 132 (15), 154104 (2010). 
 A consistent and accurate ab initio parametrization of density
 functional dispersion correction (DFT-D) for the 94 elements H-Pu.
 https://doi.org/10.1063/1.3382344

 Guidon, M; Hutter, J; VandeVondele, J. 
 JOURNAL OF CHEMICAL THEORY AND COMPUTATION, 5 (11), 3010-3021 (2009). 
 Robust Periodic Hartree-Fock Exchange for Large-Scale Simulations Using
 Gaussian Basis Sets.
 https://doi.org/10.1021/ct900494g

 Guidon, M; Schiffmann, F; Hutter, J; VandeVondele, J. 
 JOURNAL OF CHEMICAL PHYSICS, 128 (21), 214104 (2008). 
 Ab initio molecular dynamics using hybrid density functionals.
 https://doi.org/10.1063/1.2931945

 VandeVondele, J; Hutter, J. 
 JOURNAL OF CHEMICAL PHYSICS, 127 (11), 114105 (2007). 
 Gaussian basis sets for accurate calculations on molecular systems in
 gas and condensed phases.
 https://doi.org/10.1063/1.2770708

 Krack, M. 
 THEORETICAL CHEMISTRY ACCOUNTS, 114 (1-3), 145-152 (2005). 
 Pseudopotentials for H to Kr optimized for gradient-corrected
 exchange-correlation functionals.
 https://doi.org/10.1007/s00214-005-0655-y

 VandeVondele, J; Krack, M; Mohamed, F; Parrinello, M; Chassaing, T;
 Hutter, J. COMPUTER PHYSICS COMMUNICATIONS, 167 (2), 103-128 (2005). 
 QUICKSTEP: Fast and accurate density functional calculations using a
 mixed Gaussian and plane waves approach.
 https://doi.org/10.1016/j.cpc.2004.12.014

 Frigo, M; Johnson, SG. 
 PROCEEDINGS OF THE IEEE, 93 (2), 216-231 (2005). 
 The design and implementation of FFTW3.
 https://doi.org/10.1109/JPROC.2004.840301

 Iannuzzi, M; Chassaing, T; Wallman, T; Hutter, J. 
 CHIMIA, 59 (7-8), 499-503 (2005). 
 Ground and excited state density functional calculations with the
 Gaussian and augmented-plane-wave method.
 https://doi.org/10.2533/000942905777676164

 Martin,Richard L.. 
 The Journal of Chemical Physics, 118 (11), 4775-4777 (2003). 
 Natural transition orbitals.
 https://doi.org/10.1063/1.1558471

 Hartwigsen, C; Goedecker, S; Hutter, J. 
 PHYSICAL REVIEW B, 58 (7), 3641-3662 (1998). 
 Relativistic separable dual-space Gaussian pseudopotentials from H to Rn.
 https://doi.org/10.1103/PhysRevB.58.3641

 Lippert, G; Hutter, J; Parrinello, M. 
 MOLECULAR PHYSICS, 92 (3), 477-487 (1997). 
 A hybrid Gaussian and plane wave density functional scheme.
 https://doi.org/10.1080/002689797170220

 Goedecker, S; Teter, M; Hutter, J. 
 PHYSICAL REVIEW B, 54 (3), 1703-1710 (1996). 
 Separable dual-space Gaussian pseudopotentials.
 https://doi.org/10.1103/PhysRevB.54.1703

 BECKE, AD. PHYSICAL REVIEW A, 38 (6), 3098-3100 (1988). 
 DENSITY-FUNCTIONAL EXCHANGE-ENERGY APPROXIMATION WITH CORRECT
 ASYMPTOTIC-BEHAVIOR.
 https://doi.org/10.1103/PhysRevA.38.3098

 LEE, CT; YANG, WT; PARR, RG. 
 PHYSICAL REVIEW B, 37 (2), 785-789 (1988). 
 DEVELOPMENT OF THE COLLE-SALVETTI CORRELATION-ENERGY FORMULA INTO A
 FUNCTIONAL OF THE ELECTRON-DENSITY.
 https://doi.org/10.1103/PhysRevB.37.785

 VOSKO, SH; WILK, L; NUSAIR, M. 
 CANADIAN JOURNAL OF PHYSICS, 58 (8), 1200-1211 (1980). 
 ACCURATE SPIN-DEPENDENT ELECTRON LIQUID CORRELATION ENERGIES FOR LOCAL
 SPIN-DENSITY CALCULATIONS - A CRITICAL ANALYSIS.
 https://doi.org/10.1139/p80-159


 -------------------------------------------------------------------------------
 -                                                                             -
 -                                T I M I N G                                  -
 -                                                                             -
 -------------------------------------------------------------------------------
 SUBROUTINE                       CALLS  ASD         SELF TIME        TOTAL TIME
                                MAXIMUM       AVERAGE  MAXIMUM  AVERAGE  MAXIMUM
 CP2K                                 1  1.0    0.034    0.077 1525.661 1525.666
 qs_energies                          1  2.0    0.000    0.000 1525.066 1525.072
 qs_energies_properties               1  3.0    0.000    0.000 1239.539 1239.544
 tddfpt                               1  4.0    0.000    0.001 1239.539 1239.544
 tddfpt_davidson_solver               2  5.0    0.002    0.005 1234.558 1234.562
 tddfpt_compute_Aop_evects           10  6.0    0.000    0.000 1230.061 1230.066
 integrate_four_center              238  9.0    0.298    0.673 1106.788 1106.791
 integrate_four_center_main         238 10.0    0.075    0.082 1062.664 1079.372
 integrate_four_center_bin        15232 11.0 1062.588 1079.300 1062.588 1079.300
 tddfpt_apply_hfx                    10  7.0    0.004    0.004  900.243  900.246
 tddft_hfx_matrix                   200  8.0    0.004    0.005  895.650  895.653
 fhxc_kernel                         10  7.0    0.009    0.010  328.199  328.200
 scf_env_do_scf                       1  3.0    0.000    0.000  284.178  284.203
 scf_env_do_scf_inner_loop           38  4.0    0.002    0.007  284.178  284.202
 qs_ks_update_qs_env                 38  5.0    0.000    0.000  256.305  256.308
 rebuild_ks_matrix                   38  6.0    0.000    0.000  256.293  256.295
 qs_ks_build_kohn_sham_matrix        38  7.0    0.005    0.006  256.293  256.295
 hfx_ks_matrix                       38  8.0    0.001    0.001  211.155  211.156
 calculate_rho_elec                 479  8.7    0.955    1.093  169.293  169.314
 pw_transfer                       6169 10.2    0.514    0.633  149.538  150.195
 fft_wrap_pw1pw2                   5693 11.2    0.067    0.075  147.726  148.350
 fft_wrap_pw1pw2_180               3542 12.0   12.953   14.135  141.330  141.877
 fft3d_ps                          5693 13.2   62.071   67.962  108.042  109.773
 integrate_v_rspace                 238  8.2    0.008    0.009   98.534   98.992
 qs_rho_update_rho                  240  7.5    0.002    0.002   98.343   98.362
 density_rs2pw                      479  9.7    0.029    0.034   89.334   97.054
 tddfpt_apply_xc_analytic           400  8.0    1.556    1.791   88.442   88.939
 grid_collocate_task_list           479  9.7   76.799   81.354   76.799   81.354
 rs_pw_transfer                    2869 10.5    0.038    0.044   71.642   79.653
 tddfpt_construct_aux_fit_densi     201  8.0    0.004    0.005   62.102   62.543
 mp_sync                           1337 10.6   38.292   58.753   38.292   58.753
 xc_calc_2nd_deriv_analytical       400  9.0    4.529    5.098   57.915   58.069
 grid_integrate_task_list           238  9.2   52.802   55.844   52.802   55.844
 potential_pw2rs                    238  9.2    0.038    0.042   40.152   40.669
 mp_alltoall_z22v                  5693 15.2   30.554   39.109   30.554   39.109
 rs_pw_transfer_RS2PW_180           480 11.7   16.742   18.676   29.404   37.344
 mp_waitany                       67444 12.5   21.908   33.520   21.908   33.520
 -------------------------------------------------------------------------------

 The number of warnings for this run is : 3
 
 -------------------------------------------------------------------------------
  **** **** ******  **  PROGRAM ENDED AT                 2024-11-11 12:33:43.015
 ***** ** ***  *** **   PROGRAM RAN ON            bc12007.int.ets1.calculquebec.
 **    ****   ******    PROGRAM RAN BY                                  ekadashi
 ***** **    ** ** **   PROGRAM PROCESS ID                               2942969
  **** **  *******  **  PROGRAM STOPPED IN /scratch/ekadashi/Libra_CP2K/SiGe_Het
                                           ero/step2_B3LYP/SET2/job1
