 DBCSR| CPU Multiplication driver                                           XSMM
 DBCSR| Multrec recursion limit                                              512
 DBCSR| Multiplication stack size                                           1000
 DBCSR| Maximum elements for images                                    UNLIMITED
 DBCSR| Multiplicative factor virtual images                                   1
 DBCSR| Use multiplication densification                                       T
 DBCSR| Multiplication size stacks                                             3
 DBCSR| Use memory pool for CPU allocation                                     F
 DBCSR| Number of 3D layers                                               SINGLE
 DBCSR| Use MPI memory allocation                                              F
 DBCSR| Use RMA algorithm                                                      F
 DBCSR| Use Communication thread                                               T
 DBCSR| Communication thread load                                             87
 DBCSR| MPI: My node id                                                        0
 DBCSR| MPI: Number of nodes                                                  40
 DBCSR| OMP: Current number of threads                                         1
 DBCSR| OMP: Max number of threads                                             1
 DBCSR| Split modifier for TAS multiplication algorithm                  1.0E+00


  **** **** ******  **  PROGRAM STARTED AT               2024-11-11 10:22:27.616
 ***** ** ***  *** **   PROGRAM STARTED ON        bc12007.int.ets1.calculquebec.
 **    ****   ******    PROGRAM STARTED BY                              ekadashi
 ***** **    ** ** **   PROGRAM PROCESS ID                               2884660
  **** **  *******  **  PROGRAM STARTED IN /scratch/ekadashi/Libra_CP2K/SiGe_Het
                                           ero/step2_B3LYP/SET2/job1

 CP2K| version string:                                          CP2K version 9.1
 CP2K| source code revision number:                                  git:d8d7100
 CP2K| cp2kflags: omp libint fftw3 libxc parallel mpi3 scalapack xsmm plumed2   
 CP2K| is freely available from                            https://www.cp2k.org/
 CP2K| Program compiled at                       Thu 20 Jan 2022 10:47:29 PM UTC
 CP2K| Program compiled on                           build-node.computecanada.ca
 CP2K| Program compiled for                                   Linux-x86-64-gofbf
 CP2K| Data directory path    /cvmfs/soft.computecanada.ca/easybuild/software/20
 CP2K| Input file name                                       Diag_libra-2001.inp

 GLOBAL| Force Environment number                                              1
 GLOBAL| Basis set file name                                        BASIS_MOLOPT
 GLOBAL| Potential file name                                           POTENTIAL
 GLOBAL| MM Potential file name                                     MM_POTENTIAL
 GLOBAL| Coordinate file name                                     coord-2001.xyz
 GLOBAL| Method name                                                        CP2K
 GLOBAL| Project name                                            Diag_libra-2001
 GLOBAL| Run type                                                         ENERGY
 GLOBAL| FFT library                                                       FFTW3
 GLOBAL| Diagonalization library                                       ScaLAPACK
 GLOBAL| Orthonormality check for eigenvectors                          DISABLED
 GLOBAL| Matrix multiplication library                                 ScaLAPACK
 GLOBAL| All-to-all communication in single precision                          F
 GLOBAL| FFTs using library dependent lengths                                  F
 GLOBAL| Grid backend                                                       AUTO
 GLOBAL| Global print level                                               MEDIUM
 GLOBAL| MPI I/O enabled                                                       T
 GLOBAL| Total number of message passing processes                            40
 GLOBAL| Number of threads for this process                                    1
 GLOBAL| This output is from process                                           0
 GLOBAL| Stack size for threads created by OpenMP (OMP_STACKSIZE)        default
 GLOBAL| CPU model name                 Intel(R) Xeon(R) Gold 6148 CPU @ 2.40GHz
 GLOBAL| CPUID                                                              1003

 MEMORY| system memory details [Kb]
 MEMORY|                        rank 0           min           max       average
 MEMORY| MemTotal            196639196     196639196     196639196     196639196
 MEMORY| MemFree             175127784     175127504     175127784     175127511
 MEMORY| Buffers                    76            76            76            76
 MEMORY| Cached                4817212       4817208       4817212       4817208
 MEMORY| Slab                  2248764       2248756       2248764       2248756
 MEMORY| SReclaimable           400452        400452        400452        400452
 MEMORY| MemLikelyFree       180345524     180345240     180345524     180345247


 *** Fundamental physical constants (SI units) ***

 *** Literature: B. J. Mohr and B. N. Taylor,
 ***             CODATA recommended values of the fundamental physical
 ***             constants: 2006, Web Version 5.1
 ***             http://physics.nist.gov/constants

 Speed of light in vacuum [m/s]                             2.99792458000000E+08
 Magnetic constant or permeability of vacuum [N/A**2]       1.25663706143592E-06
 Electric constant or permittivity of vacuum [F/m]          8.85418781762039E-12
 Planck constant (h) [J*s]                                  6.62606896000000E-34
 Planck constant (h-bar) [J*s]                              1.05457162825177E-34
 Elementary charge [C]                                      1.60217648700000E-19
 Electron mass [kg]                                         9.10938215000000E-31
 Electron g factor [ ]                                     -2.00231930436220E+00
 Proton mass [kg]                                           1.67262163700000E-27
 Fine-structure constant                                    7.29735253760000E-03
 Rydberg constant [1/m]                                     1.09737315685270E+07
 Avogadro constant [1/mol]                                  6.02214179000000E+23
 Boltzmann constant [J/K]                                   1.38065040000000E-23
 Atomic mass unit [kg]                                      1.66053878200000E-27
 Bohr radius [m]                                            5.29177208590000E-11

 *** Conversion factors ***

 [u] -> [a.u.]                                              1.82288848426455E+03
 [Angstrom] -> [Bohr] = [a.u.]                              1.88972613288564E+00
 [a.u.] = [Bohr] -> [Angstrom]                              5.29177208590000E-01
 [a.u.] -> [s]                                              2.41888432650478E-17
 [a.u.] -> [fs]                                             2.41888432650478E-02
 [a.u.] -> [J]                                              4.35974393937059E-18
 [a.u.] -> [N]                                              8.23872205491840E-08
 [a.u.] -> [K]                                              3.15774647902944E+05
 [a.u.] -> [kJ/mol]                                         2.62549961709828E+03
 [a.u.] -> [kcal/mol]                                       6.27509468713739E+02
 [a.u.] -> [Pa]                                             2.94210107994716E+13
 [a.u.] -> [bar]                                            2.94210107994716E+08
 [a.u.] -> [atm]                                            2.90362800883016E+08
 [a.u.] -> [eV]                                             2.72113838565563E+01
 [a.u.] -> [Hz]                                             6.57968392072181E+15
 [a.u.] -> [1/cm] (wave numbers)                            2.19474631370540E+05
 [a.u./Bohr**2] -> [1/cm]                                   5.14048714338585E+03
 

 CELL_TOP| Volume [angstrom^3]:                                      6540.008810
 CELL_TOP| Vector a [angstrom    15.928     0.000     0.000   |a| =    15.927500
 CELL_TOP| Vector b [angstrom    -7.965    13.786     0.000   |b| =    15.921700
 CELL_TOP| Vector c [angstrom    -0.000     0.000    29.784   |c| =    29.783600
 CELL_TOP| Angle (b,c), alpha [degree]:                                89.999800
 CELL_TOP| Angle (a,c), beta  [degree]:                                90.000200
 CELL_TOP| Angle (a,b), gamma [degree]:                               120.015200
 CELL_TOP| Numerically orthorhombic:                                          NO

 GENERATE|  Preliminary Number of Bonds generated:                             0
 GENERATE|  Achieved consistency in connectivity generation.

 CELL| Volume [angstrom^3]:                                          6540.008810
 CELL| Vector a [angstrom]:      15.928     0.000     0.000   |a| =    15.927500
 CELL| Vector b [angstrom]:      -7.965    13.786     0.000   |b| =    15.921700
 CELL| Vector c [angstrom]:      -0.000     0.000    29.784   |c| =    29.783600
 CELL| Angle (b,c), alpha [degree]:                                    89.999800
 CELL| Angle (a,c), beta  [degree]:                                    90.000200
 CELL| Angle (a,b), gamma [degree]:                                   120.015200
 CELL| Numerically orthorhombic:                                              NO

 CELL_REF| Volume [angstrom^3]:                                      6540.008810
 CELL_REF| Vector a [angstrom    15.928     0.000     0.000   |a| =    15.927500
 CELL_REF| Vector b [angstrom    -7.965    13.786     0.000   |b| =    15.921700
 CELL_REF| Vector c [angstrom    -0.000     0.000    29.784   |c| =    29.783600
 CELL_REF| Angle (b,c), alpha [degree]:                                89.999800
 CELL_REF| Angle (a,c), beta  [degree]:                                90.000200
 CELL_REF| Angle (a,b), gamma [degree]:                               120.015200
 CELL_REF| Numerically orthorhombic:                                          NO

 *******************************************************************************
 *******************************************************************************
 **                                                                           **
 **     #####                         ##              ##                      **
 **    ##   ##            ##          ##              ##                      **
 **   ##     ##                       ##            ######                    **
 **   ##     ##  ##   ##  ##   #####  ##  ##   ####   ##    #####    #####    **
 **   ##     ##  ##   ##  ##  ##      ## ##   ##      ##   ##   ##  ##   ##   **
 **   ##  ## ##  ##   ##  ##  ##      ####     ###    ##   ######   ######    **
 **    ##  ###   ##   ##  ##  ##      ## ##      ##   ##   ##       ##        **
 **     #######   #####   ##   #####  ##  ##  ####    ##    #####   ##        **
 **           ##                                                    ##        **
 **                                                                           **
 **                                                ... make the atoms dance   **
 **                                                                           **
 **            Copyright (C) by CP2K developers group (2000-2021)             **
 **                      J. Chem. Phys. 152, 194103 (2020)                    **
 **                                                                           **
 *******************************************************************************

 DFT| Spin restricted Kohn-Sham (RKS) calculation                            RKS
 DFT| Multiplicity                                                             1
 DFT| Number of spin states                                                    1
 DFT| Charge                                                                   0
 DFT| Self-interaction correction (SIC)                                       NO
 DFT| Cutoffs: density                                              1.000000E-10
 DFT|          gradient                                             1.000000E-10
 DFT|          tau                                                  1.000000E-10
 DFT|          cutoff_smoothing_range                               0.000000E+00
 DFT| XC density smoothing                                                  NONE
 DFT| XC derivatives                                                          PW
 FUNCTIONAL| ROUTINE=NEW
 FUNCTIONAL| BECKE88:
 FUNCTIONAL| A. Becke, Phys. Rev. A 38, 3098 (1988) {LDA version}               
 FUNCTIONAL| LYP:
 FUNCTIONAL| C. Lee, W. Yang, R.G. Parr, Phys. Rev. B, 37, 785 (1988) {LDA versi
 FUNCTIONAL| on}                                                                
 FUNCTIONAL| VWN:
 FUNCTIONAL| S. H. Vosko, L. Wilk and M. Nusair, Can. J. Phys. 58, 1200 (1980) {
 FUNCTIONAL| LDA version}                                                       
 FUNCTIONAL| XALPHA:
 FUNCTIONAL| Dirac/Slater local exchange; parameter=  0.666 {LDA}               
 vdW POTENTIAL|                                                   Pair Potential
 vdW POTENTIAL|          DFT-D3 (Version 3.1)
 vdW POTENTIAL|          Potential Form: S. Grimme et al, JCP 132: 154104 (2010)
 vdW POTENTIAL|          Zero Damping
 vdW POTENTIAL|          Cutoff Radius [Bohr]:                             20.00
 vdW POTENTIAL|          s6 Scaling Factor:                               1.0000
 vdW POTENTIAL|          sr6 Scaling Factor:                              1.2610
 vdW POTENTIAL|          s8 Scaling Factor:                               1.7030
 vdW POTENTIAL|          Cutoff for CN calculation:                   0.1000E-05

 QS| Method:                                                                 GPW
 QS| Density plane wave grid type                        NON-SPHERICAL FULLSPACE
 QS| Number of grid levels:                                                    4
 QS| Density cutoff [a.u.]:                                                175.0
 QS| Multi grid cutoff [a.u.]: 1) grid level                               175.0
 QS|                           2) grid level                                58.3
 QS|                           3) grid level                                19.4
 QS|                           4) grid level                                 6.5
 QS| Grid level progression factor:                                          3.0
 QS| Relative density cutoff [a.u.]:                                        25.0
 QS| Interaction thresholds: eps_pgf_orb:                                1.0E-05
 QS|                         eps_filter_matrix:                          0.0E+00
 QS|                         eps_core_charge:                            1.0E-12
 QS|                         eps_rho_gspace:                             1.0E-10
 QS|                         eps_rho_rspace:                             1.0E-10
 QS|                         eps_gvg_rspace:                             1.0E-05
 QS|                         eps_ppl:                                    1.0E-02
 QS|                         eps_ppnl:                                   1.0E-07


 ATOMIC KIND INFORMATION

  1. Atomic kind: Si                                    Number of atoms:      32

     Orbital Basis Set                                     DZVP-MOLOPT-SR-GTH-q4

       Number of orbital shell sets:                                           1
       Number of orbital shells:                                               5
       Number of primitive Cartesian functions:                                4
       Number of Cartesian basis functions:                                   14
       Number of spherical basis functions:                                   13
       Norm type:                                                              2

       Normalised Cartesian orbitals:

                        Set   Shell   Orbital            Exponent    Coefficient

                          1       1    2s                1.256768       0.294045
                                                         0.506394      -0.015884
                                                         0.238884      -0.207657
                                                         0.087337      -0.036225

                          1       2    3s                1.256768      -1.532347
                                                         0.506394       0.524539
                                                         0.238884       0.025013
                                                         0.087337      -0.052203

                          1       3    3px               1.256768       0.152274
                                                         0.506394      -0.154145
                                                         0.238884      -0.115581
                                                         0.087337      -0.028372
                          1       3    3py               1.256768       0.152274
                                                         0.506394      -0.154145
                                                         0.238884      -0.115581
                                                         0.087337      -0.028372
                          1       3    3pz               1.256768       0.152274
                                                         0.506394      -0.154145
                                                         0.238884      -0.115581
                                                         0.087337      -0.028372

                          1       4    4px               1.256768       0.313378
                                                         0.506394      -0.415360
                                                         0.238884      -0.022539
                                                         0.087337       0.078473
                          1       4    4py               1.256768       0.313378
                                                         0.506394      -0.415360
                                                         0.238884      -0.022539
                                                         0.087337       0.078473
                          1       4    4pz               1.256768       0.313378
                                                         0.506394      -0.415360
                                                         0.238884      -0.022539
                                                         0.087337       0.078473

                          1       5    4dx2              1.256768       0.325879
                                                         0.506394       0.163831
                                                         0.238884       0.044076
                                                         0.087337       0.010608
                          1       5    4dxy              1.256768       0.564439
                                                         0.506394       0.283764
                                                         0.238884       0.076342
                                                         0.087337       0.018373
                          1       5    4dxz              1.256768       0.564439
                                                         0.506394       0.283764
                                                         0.238884       0.076342
                                                         0.087337       0.018373
                          1       5    4dy2              1.256768       0.325879
                                                         0.506394       0.163831
                                                         0.238884       0.044076
                                                         0.087337       0.010608
                          1       5    4dyz              1.256768       0.564439
                                                         0.506394       0.283764
                                                         0.238884       0.076342
                                                         0.087337       0.018373
                          1       5    4dz2              1.256768       0.325879
                                                         0.506394       0.163831
                                                         0.238884       0.044076
                                                         0.087337       0.010608

     Auxiliary Fit Basis Set                                               cFIT3

       Number of orbital shell sets:                                           4
       Number of orbital shells:                                               4
       Number of primitive Cartesian functions:                                6
       Number of Cartesian basis functions:                                    8
       Number of spherical basis functions:                                    8
       Norm type:                                                              2

       Normalised Cartesian orbitals:

                        Set   Shell   Orbital            Exponent    Coefficient

                          1       1    1s                0.096480       0.123378

                          2       1    1s                0.246960      -0.309315
                                                         1.277560       0.429908

                          3       1    1px               0.089490       0.069768
                          3       1    1py               0.089490       0.069768
                          3       1    1pz               0.089490       0.069768

                          4       1    1px               0.295630       0.313983
                                                         2.202470      -0.124968
                          4       1    1py               0.295630       0.313983
                                                         2.202470      -0.124968
                          4       1    1pz               0.295630       0.313983
                                                         2.202470      -0.124968

       Atomic covalent radius [Angstrom]:                                  1.110

       Atomic van der Waals radius [Angstrom]:                             2.100

     GTH Potential information for                                       GTH-PBE

       Description:                       Goedecker-Teter-Hutter pseudopotential
                                           Goedecker et al., PRB 54, 1703 (1996)
                                          Hartwigsen et al., PRB 58, 3641 (1998)
                                                      Krack, TCA 114, 145 (2005)

       Gaussian exponent of the core charge distribution:               2.582645
       Electronic configuration (s p d ...):                               2   2

       Parameters of the local part of the GTH pseudopotential:

                          rloc        C1          C2          C3          C4
                        0.440000   -6.269288

       Parameters of the non-local part of the GTH pseudopotential:

                   l      r(l)      h(i,j,l)

                   0    0.435634    8.951742   -2.706271
                                   -2.706271    3.493781
                   1    0.497942    2.431277

  2. Atomic kind: H                                     Number of atoms:      64

     Orbital Basis Set                                     DZVP-MOLOPT-SR-GTH-q1

       Number of orbital shell sets:                                           1
       Number of orbital shells:                                               3
       Number of primitive Cartesian functions:                                5
       Number of Cartesian basis functions:                                    5
       Number of spherical basis functions:                                    5
       Norm type:                                                              2

       Normalised Cartesian orbitals:

                        Set   Shell   Orbital            Exponent    Coefficient

                          1       1    2s               10.068468      -0.133023
                                                         2.680223      -0.177618
                                                         0.791502      -0.258419
                                                         0.239116      -0.107525
                                                         0.082193      -0.014019

                          1       2    3s               10.068468       0.344673
                                                         2.680223       1.819821
                                                         0.791502      -0.999069
                                                         0.239116       0.017430
                                                         0.082193       0.082660

                          1       3    3px              10.068468       0.155326
                                                         2.680223       0.367157
                                                         0.791502       0.311480
                                                         0.239116       0.080105
                                                         0.082193       0.033440
                          1       3    3py              10.068468       0.155326
                                                         2.680223       0.367157
                                                         0.791502       0.311480
                                                         0.239116       0.080105
                                                         0.082193       0.033440
                          1       3    3pz              10.068468       0.155326
                                                         2.680223       0.367157
                                                         0.791502       0.311480
                                                         0.239116       0.080105
                                                         0.082193       0.033440

     Auxiliary Fit Basis Set                                               cFIT3

       Number of orbital shell sets:                                           2
       Number of orbital shells:                                               2
       Number of primitive Cartesian functions:                                3
       Number of Cartesian basis functions:                                    2
       Number of spherical basis functions:                                    2
       Norm type:                                                              2

       Normalised Cartesian orbitals:

                        Set   Shell   Orbital            Exponent    Coefficient

                          1       1    1s                0.113290       0.139173

                          2       1    1s                0.551250       0.404894
                                                         3.585030       0.334062

       Atomic covalent radius [Angstrom]:                                  0.320

       Atomic van der Waals radius [Angstrom]:                             1.090

     GTH Potential information for                                       GTH-PBE

       Description:                       Goedecker-Teter-Hutter pseudopotential
                                           Goedecker et al., PRB 54, 1703 (1996)
                                          Hartwigsen et al., PRB 58, 3641 (1998)
                                                      Krack, TCA 114, 145 (2005)

       Gaussian exponent of the core charge distribution:              12.500000
       Electronic configuration (s p d ...):                                   1

       Parameters of the local part of the GTH pseudopotential:

                          rloc        C1          C2          C3          C4
                        0.200000   -4.178900    0.724463

  3. Atomic kind: Ge                                    Number of atoms:      32

     Orbital Basis Set                                     DZVP-MOLOPT-SR-GTH-q4

       Number of orbital shell sets:                                           1
       Number of orbital shells:                                               5
       Number of primitive Cartesian functions:                                4
       Number of Cartesian basis functions:                                   14
       Number of spherical basis functions:                                   13
       Norm type:                                                              2

       Normalised Cartesian orbitals:

                        Set   Shell   Orbital            Exponent    Coefficient

                          1       1    2s                3.751626      -0.120003
                                                         1.419172       0.428185
                                                         0.322428      -0.228255
                                                         0.110740      -0.068975

                          1       2    3s                3.751626       0.273885
                                                         1.419172      -0.836040
                                                         0.322428       0.584240
                                                         0.110740      -0.261045

                          1       3    3px               3.751626       0.064521
                                                         1.419172       0.216179
                                                         0.322428      -0.253385
                                                         0.110740      -0.035002
                          1       3    3py               3.751626       0.064521
                                                         1.419172       0.216179
                                                         0.322428      -0.253385
                                                         0.110740      -0.035002
                          1       3    3pz               3.751626       0.064521
                                                         1.419172       0.216179
                                                         0.322428      -0.253385
                                                         0.110740      -0.035002

                          1       4    4px               3.751626      -0.201632
                                                         1.419172      -0.391570
                                                         0.322428       0.486065
                                                         0.110740      -0.127990
                          1       4    4py               3.751626      -0.201632
                                                         1.419172      -0.391570
                                                         0.322428       0.486065
                                                         0.110740      -0.127990
                          1       4    4pz               3.751626      -0.201632
                                                         1.419172      -0.391570
                                                         0.322428       0.486065
                                                         0.110740      -0.127990

                          1       5    4dx2              3.751626      -0.158822
                                                         1.419172       0.193543
                                                         0.322428       0.178643
                                                         0.110740       0.009408
                          1       5    4dxy              3.751626      -0.275088
                                                         1.419172       0.335227
                                                         0.322428       0.309418
                                                         0.110740       0.016296
                          1       5    4dxz              3.751626      -0.275088
                                                         1.419172       0.335227
                                                         0.322428       0.309418
                                                         0.110740       0.016296
                          1       5    4dy2              3.751626      -0.158822
                                                         1.419172       0.193543
                                                         0.322428       0.178643
                                                         0.110740       0.009408
                          1       5    4dyz              3.751626      -0.275088
                                                         1.419172       0.335227
                                                         0.322428       0.309418
                                                         0.110740       0.016296
                          1       5    4dz2              3.751626      -0.158822
                                                         1.419172       0.193543
                                                         0.322428       0.178643
                                                         0.110740       0.009408

     Auxiliary Fit Basis Set                                               cFIT6

       Number of orbital shell sets:                                           4
       Number of orbital shells:                                               4
       Number of primitive Cartesian functions:                                6
       Number of Cartesian basis functions:                                    8
       Number of spherical basis functions:                                    8
       Norm type:                                                              2

       Normalised Cartesian orbitals:

                        Set   Shell   Orbital            Exponent    Coefficient

                          1       1    1s                0.110750       0.136826

                          2       1    1s                0.308366      -0.415436
                                                         1.178430       0.610195

                          3       1    1px               0.110745       0.091064
                          3       1    1py               0.110745       0.091064
                          3       1    1pz               0.110745       0.091064

                          4       1    1px               0.339941       0.397306
                                                         1.591237      -0.423312
                          4       1    1py               0.339941       0.397306
                                                         1.591237      -0.423312
                          4       1    1pz               0.339941       0.397306
                                                         1.591237      -0.423312

       Atomic covalent radius [Angstrom]:                                  1.220

       Atomic van der Waals radius [Angstrom]:                             2.110

     GTH Potential information for                                       GTH-PBE

       Description:                       Goedecker-Teter-Hutter pseudopotential
                                           Goedecker et al., PRB 54, 1703 (1996)
                                          Hartwigsen et al., PRB 58, 3641 (1998)
                                                      Krack, TCA 114, 145 (2005)

       Gaussian exponent of the core charge distribution:               1.714678
       Electronic configuration (s p d ...):                               2   2

       Parameters of the local part of the GTH pseudopotential:

                          rloc        C1          C2          C3          C4
                        0.540000

       Parameters of the non-local part of the GTH pseudopotential:

                   l      r(l)      h(i,j,l)

                   0    0.421865    7.510241   -0.588108   -1.447976
                                   -0.588108   -1.595888    3.738657
                                   -1.447976    3.738657   -2.967467
                   1    0.567529    0.913860    0.546875
                                    0.546875   -0.647072
                   2    0.813914    0.197177


 MOLECULE KIND INFORMATION


 All atoms are their own molecule, skipping detailed information


 TOTAL NUMBERS AND MAXIMUM NUMBERS

  Total number of            - Atomic kinds:                                   3
                             - Atoms:                                        128
                             - Shell sets:                                   128
                             - Shells:                                       512
                             - Primitive Cartesian functions:                576
                             - Cartesian basis functions:                   1216
                             - Spherical basis functions:                   1152

  Maximum angular momentum of- Orbital basis functions:                        2
                             - Local part of the GTH pseudopotential:          2
                             - Non-local part of the GTH pseudopotential:      4

  AUX_FIT ADMM-Basis: 
  Total number of            - Shell sets:                                   384
                             - Shells:                                       384
                             - Primitive Cartesian functions:                576
                             - Cartesian basis functions:                    640
                             - Spherical basis functions:                    640
                               Maximum angular momentum                        1


 MODULE QUICKSTEP:  ATOMIC COORDINATES IN angstrom

 Atom  Kind  Element       X           Y           Z          Z(eff)       Mass
    1   1 Si  14       0.280222    2.359864    1.900110       4.0000     28.0855
    2   1 Si  14       2.212331    1.114339    2.346149       4.0000     28.0855
    3   1 Si  14       4.040961    2.231658    1.513959       4.0000     28.0855
    4   1 Si  14       6.007781    1.160079    2.333546       4.0000     28.0855
    5   1 Si  14      -1.884954    5.705264    1.879692       4.0000     28.0855
    6   1 Si  14       0.094306    4.544492    2.645858       4.0000     28.0855
    7   1 Si  14       1.969264    5.806690    1.820120       4.0000     28.0855
    8   1 Si  14       4.115757    4.579067    2.314206       4.0000     28.0855
    9   2 H    1       0.632310    2.298560    0.426267       1.0000      1.0079
   10   2 H    1       2.246575    0.846934    3.825805       1.0000      1.0079
   11   2 H    1       1.762772    3.626584    5.237613       1.0000      1.0079
   12   2 H    1       3.739698    2.235027    8.917364       1.0000      1.0079
   13   2 H    1       3.978171    2.292014    0.048289       1.0000      1.0079
   14   2 H    1       5.938080    1.067504    3.814021       1.0000      1.0079
   15   2 H    1      -1.763639    3.524740    5.056176       1.0000      1.0079
   16   2 H    1      -0.242596    2.903053    9.342903       1.0000      1.0079
   17   2 H    1      -1.577613    5.728029    0.354878       1.0000      1.0079
   18   2 H    1       0.043927    4.430575    4.153608       1.0000      1.0079
   19   2 H    1       3.923123    0.001433    5.128449       1.0000      1.0079
   20   2 H    1       1.747644    5.961390    9.106116       1.0000      1.0079
   21   2 H    1       1.635580    5.814881    0.311408       1.0000      1.0079
   22   2 H    1       4.257150    4.283398    3.792801       1.0000      1.0079
   23   2 H    1       0.134826    0.247405    5.574584       1.0000      1.0079
   24   2 H    1      -2.246132    5.988937    8.800973       1.0000      1.0079
   25   3 Ge  32       1.885296    3.656713    6.846060       4.0000     72.6400
   26   3 Ge  32       3.878967    2.376048    7.414810       4.0000     72.6400
   27   3 Ge  32      -1.937440    3.414329    6.534918       4.0000     72.6400
   28   3 Ge  32      -0.086735    2.618957    7.792285       4.0000     72.6400
   29   3 Ge  32       3.945679    0.050106    6.656224       4.0000     72.6400
   30   3 Ge  32       1.767025    5.990788    7.566267       4.0000     72.6400
   31   3 Ge  32       0.053195    0.267918    7.136093       4.0000     72.6400
   32   3 Ge  32      -2.210321    5.781351    7.244678       4.0000     72.6400
   33   1 Si  14       8.017795    2.266040    1.782760       4.0000     28.0855
   34   1 Si  14      10.070853    1.086511    2.290462       4.0000     28.0855
   35   1 Si  14      12.165810    2.274085    1.789759       4.0000     28.0855
   36   1 Si  14      14.247981    1.210065    2.397796       4.0000     28.0855
   37   1 Si  14       6.183933    5.737049    1.690949       4.0000     28.0855
   38   1 Si  14       8.189508    4.614377    2.486676       4.0000     28.0855
   39   1 Si  14      10.025581    5.740353    1.625553       4.0000     28.0855
   40   1 Si  14      11.992943    4.540947    2.244110       4.0000     28.0855
   41   2 H    1       8.002929    2.486909    0.362917       1.0000      1.0079
   42   2 H    1      10.029614    0.950180    3.727794       1.0000      1.0079
   43   2 H    1       9.658441    3.316981    5.097886       1.0000      1.0079
   44   2 H    1      12.041890    2.071280    8.778131       1.0000      1.0079
   45   2 H    1      12.114041    2.309860    0.295450       1.0000      1.0079
   46   2 H    1      14.207927    0.863815    3.869138       1.0000      1.0079
   47   2 H    1       6.206447    3.536194    5.231722       1.0000      1.0079
   48   2 H    1       7.875192    2.222038    9.147436       1.0000      1.0079
   49   2 H    1       6.419411    5.594353    0.228903       1.0000      1.0079
   50   2 H    1       8.118757    4.716111    3.969424       1.0000      1.0079
   51   2 H    1      12.350988   -0.797800    5.390436       1.0000      1.0079
   52   2 H    1      10.135025    5.721543    8.809341       1.0000      1.0079
   53   2 H    1       9.932032    5.603605    0.127976       1.0000      1.0079
   54   2 H    1      12.032623    4.708619    3.729279       1.0000      1.0079
   55   2 H    1       7.937433    0.290303    5.215971       1.0000      1.0079
   56   2 H    1       5.963737    5.814583    9.041565       1.0000      1.0079
   57   3 Ge  32       9.988610    3.230124    6.607161       4.0000     72.6400
   58   3 Ge  32      12.110712    2.088969    7.214990       4.0000     72.6400
   59   3 Ge  32       6.061388    3.260230    6.741350       4.0000     72.6400
   60   3 Ge  32       8.057446    2.258443    7.612696       4.0000     72.6400
   61   3 Ge  32      12.183019   -0.347094    6.822032       4.0000     72.6400
   62   3 Ge  32       9.739056    5.624474    7.268794       4.0000     72.6400
   63   3 Ge  32       7.928574   -0.002835    6.688029       4.0000     72.6400
   64   3 Ge  32       5.870419    5.675671    7.489624       4.0000     72.6400
   65   1 Si  14      -3.830891    9.149865    1.476982       4.0000     28.0855
   66   1 Si  14      -1.801499    8.094981    2.288858       4.0000     28.0855
   67   1 Si  14       0.222733    9.192426    1.556642       4.0000     28.0855
   68   1 Si  14       2.241010    8.267672    2.109022       4.0000     28.0855
   69   1 Si  14      -5.845594   12.665088    1.438817       4.0000     28.0855
   70   1 Si  14      -3.936082   11.428776    2.097580       4.0000     28.0855
   71   1 Si  14      -1.825165   12.731468    1.524271       4.0000     28.0855
   72   1 Si  14       0.172144   11.572887    2.219300       4.0000     28.0855
   73   2 H    1      -4.070808    8.872514    0.068956       1.0000      1.0079
   74   2 H    1      -2.051641    8.062385    3.769433       1.0000      1.0079
   75   2 H    1      -1.695027   10.452411    5.170491       1.0000      1.0079
   76   2 H    1      -0.376987    9.008754    9.105084       1.0000      1.0079
   77   2 H    1      -0.080481    9.245836    0.044844       1.0000      1.0079
   78   2 H    1       2.089149    8.323984    3.532411       1.0000      1.0079
   79   2 H    1      -6.656036   10.644467    5.469128       1.0000      1.0079
   80   2 H    1      -3.905112    8.808592    8.773476       1.0000      1.0079
   81   2 H    1      -5.767628   12.882082   -0.088099       1.0000      1.0079
   82   2 H    1      -4.057606   11.222833    3.555846       1.0000      1.0079
   83   2 H    1      -0.122939    7.489936    5.014434       1.0000      1.0079
   84   2 H    1      -2.064779   12.706679    8.941976       1.0000      1.0079
   85   2 H    1      -1.969194   12.697447    0.068866       1.0000      1.0079
   86   2 H    1       0.123857   11.659215    3.716989       1.0000      1.0079
   87   2 H    1      -4.096685    6.610707    4.779301       1.0000      1.0079
   88   2 H    1      -5.456664   12.851440    9.183909       1.0000      1.0079
   89   3 Ge  32      -2.057299   10.315557    6.601601       4.0000     72.6400
   90   3 Ge  32      -0.249101    9.110649    7.579848       4.0000     72.6400
   91   3 Ge  32      -6.205073   10.227235    6.941630       4.0000     72.6400
   92   3 Ge  32      -4.077201    9.040938    7.202652       4.0000     72.6400
   93   3 Ge  32      -0.257775    7.002530    6.462324       4.0000     72.6400
   94   3 Ge  32      -2.044077   12.693795    7.365271       4.0000     72.6400
   95   3 Ge  32      -4.197438    6.807536    6.324402       4.0000     72.6400
   96   3 Ge  32      -5.928471   12.739824    7.701716       4.0000     72.6400
   97   1 Si  14       4.177754    9.251556    1.306835       4.0000     28.0855
   98   1 Si  14       6.054751    8.031611    2.181469       4.0000     28.0855
   99   1 Si  14       8.131125    9.062003    1.498173       4.0000     28.0855
  100   1 Si  14      10.147373    8.068966    2.243919       4.0000     28.0855
  101   1 Si  14       2.093072   12.647166    1.410445       4.0000     28.0855
  102   1 Si  14       4.193909   11.528595    1.988453       4.0000     28.0855
  103   1 Si  14       6.220175   12.651461    1.406641       4.0000     28.0855
  104   1 Si  14       8.116035   11.311759    1.974591       4.0000     28.0855
  105   2 H    1       4.044441    9.287443   -0.141694       1.0000      1.0079
  106   2 H    1       5.852431    8.275671    3.563592       1.0000      1.0079
  107   2 H    1       6.369871   10.305427    5.861985       1.0000      1.0079
  108   2 H    1       7.954018    9.024630    9.771126       1.0000      1.0079
  109   2 H    1       8.004908    8.879141    0.042103       1.0000      1.0079
  110   2 H    1      10.228779    8.128463    3.766107       1.0000      1.0079
  111   2 H    1       1.819715   10.187125    5.346712       1.0000      1.0079
  112   2 H    1       3.663249    8.988884    9.248361       1.0000      1.0079
  113   2 H    1       1.895656   12.789347   -0.081146       1.0000      1.0079
  114   2 H    1       4.393085   11.383504    3.451090       1.0000      1.0079
  115   2 H    1       8.165663    7.490559    5.451230       1.0000      1.0079
  116   2 H    1       6.271418   12.826978    9.520850       1.0000      1.0079
  117   2 H    1       6.435769   12.998725   -0.059966       1.0000      1.0079
  118   2 H    1       8.031787   11.269898    3.436354       1.0000      1.0079
  119   2 H    1       4.027440    6.799693    5.366239       1.0000      1.0079
  120   2 H    1       2.131714   12.812263    9.026398       1.0000      1.0079
  121   3 Ge  32       6.017542   10.344192    7.393775       4.0000     72.6400
  122   3 Ge  32       7.892606    8.997605    8.211887       4.0000     72.6400
  123   3 Ge  32       1.784638   10.171212    6.917491       4.0000     72.6400
  124   3 Ge  32       3.864578    9.099689    7.716871       4.0000     72.6400
  125   3 Ge  32       7.771022    6.930263    6.834957       4.0000     72.6400
  126   3 Ge  32       6.236404   12.648718    8.008554       4.0000     72.6400
  127   3 Ge  32       3.859436    6.872108    6.863863       4.0000     72.6400
  128   3 Ge  32       2.063517   12.596374    7.492721       4.0000     72.6400




 SCF PARAMETERS         Density guess:                                   RESTART
                        --------------------------------------------------------
                        max_scf:                                              50
                        max_scf_history:                                       0
                        max_diis:                                              4
                        --------------------------------------------------------
                        eps_scf:                                        1.00E-06
                        eps_scf_history:                                0.00E+00
                        eps_diis:                                       1.00E-01
                        eps_eigval:                                     1.00E-05
                        --------------------------------------------------------
                        level_shift [a.u.]:                                 0.00
                        added MOs                                        50    0
                        --------------------------------------------------------
                        Mixing method:                            BROYDEN_MIXING
                                                charge density mixing in g-space
                        --------------------------------------------------------
                        No outer SCF

 PW_GRID| Information for grid number                                          1
 PW_GRID| Grid distributed over                                    40 processors
 PW_GRID| Real space group dimensions                                    40    1
 PW_GRID| the grid is blocked:                                                NO
 PW_GRID| Cutoff [a.u.]                                                    175.0
 PW_GRID| spherical cutoff:                                                   NO
 PW_GRID|   Bounds   1            -90      89                Points:         180
 PW_GRID|   Bounds   2            -90      89                Points:         180
 PW_GRID|   Bounds   3           -180     179                Points:         360
 PW_GRID| Volume element (a.u.^3)  0.3784E-02     Volume (a.u.^3)     44134.1676
 PW_GRID| Grid span                                                    FULLSPACE
 PW_GRID|   Distribution                         Average         Max         Min
 PW_GRID|   G-Vectors                           291600.0      291600      291600
 PW_GRID|   G-Rays                                1620.0        1620        1620
 PW_GRID|   Real Space Points                   291600.0      324000      259200

 PW_GRID| Information for grid number                                          2
 PW_GRID| Number of the reference grid                                         1
 PW_GRID| Grid distributed over                                    40 processors
 PW_GRID| Real space group dimensions                                    40    1
 PW_GRID| the grid is blocked:                                                NO
 PW_GRID| Cutoff [a.u.]                                                     58.3
 PW_GRID| spherical cutoff:                                                   NO
 PW_GRID|   Bounds   1            -54      53                Points:         108
 PW_GRID|   Bounds   2            -54      53                Points:         108
 PW_GRID|   Bounds   3           -100      99                Points:         200
 PW_GRID| Volume element (a.u.^3)  0.1892E-01     Volume (a.u.^3)     44134.1676
 PW_GRID| Grid span                                                    FULLSPACE
 PW_GRID|   Distribution                         Average         Max         Min
 PW_GRID|   G-Vectors                            58320.0       59724       57024
 PW_GRID|   G-Rays                                 540.0         553         528
 PW_GRID|   Real Space Points                    58320.0       64800       43200

 PW_GRID| Information for grid number                                          3
 PW_GRID| Number of the reference grid                                         1
 PW_GRID| Grid distributed over                                    40 processors
 PW_GRID| Real space group dimensions                                    40    1
 PW_GRID| the grid is blocked:                                                NO
 PW_GRID| Cutoff [a.u.]                                                     19.4
 PW_GRID| spherical cutoff:                                                   NO
 PW_GRID|   Bounds   1            -30      29                Points:          60
 PW_GRID|   Bounds   2            -30      29                Points:          60
 PW_GRID|   Bounds   3            -60      59                Points:         120
 PW_GRID| Volume element (a.u.^3)  0.1022         Volume (a.u.^3)     44134.1676
 PW_GRID| Grid span                                                    FULLSPACE
 PW_GRID|   Distribution                         Average         Max         Min
 PW_GRID|   G-Vectors                            10800.0       11040       10380
 PW_GRID|   G-Rays                                 180.0         184         173
 PW_GRID|   Real Space Points                    10800.0       14400        7200

 PW_GRID| Information for grid number                                          4
 PW_GRID| Number of the reference grid                                         1
 PW_GRID| Grid distributed over                                    40 processors
 PW_GRID| Real space group dimensions                                     5    8
 PW_GRID| the grid is blocked:                                                NO
 PW_GRID| Cutoff [a.u.]                                                      6.5
 PW_GRID| spherical cutoff:                                                   NO
 PW_GRID|   Bounds   1            -18      17                Points:          36
 PW_GRID|   Bounds   2            -18      17                Points:          36
 PW_GRID|   Bounds   3            -36      35                Points:          72
 PW_GRID| Volume element (a.u.^3)  0.4730         Volume (a.u.^3)     44134.1676
 PW_GRID| Grid span                                                    FULLSPACE
 PW_GRID|   Distribution                         Average         Max         Min
 PW_GRID|   G-Vectors                             2332.8        2520        2160
 PW_GRID|   G-Rays                                  64.8          70          60
 PW_GRID|   Real Space Points                     2332.8        2880        2016

 POISSON| Solver                                                        PERIODIC
 POISSON| Periodicity                                                        XYZ

 RS_GRID| Information for grid number                                          1
 RS_GRID|   Bounds   1            -90      89                Points:         180
 RS_GRID|   Bounds   2            -90      89                Points:         180
 RS_GRID|   Bounds   3           -180     179                Points:         360
 RS_GRID| Real space distribution over                                  4 groups
 RS_GRID| Real space distribution along direction                              2
 RS_GRID| Border size                                                         38
 RS_GRID| Real space distribution over                                 10 groups
 RS_GRID| Real space distribution along direction                              3
 RS_GRID| Border size                                                         38
 RS_GRID|   Distribution                         Average         Max         Min
 RS_GRID|   Planes                                 121.0         121         121
 RS_GRID|   Distribution                         Average         Max         Min
 RS_GRID|   Planes                                 112.0         112         112

 RS_GRID| Information for grid number                                          2
 RS_GRID|   Bounds   1            -54      53                Points:         108
 RS_GRID|   Bounds   2            -54      53                Points:         108
 RS_GRID|   Bounds   3           -100      99                Points:         200
 RS_GRID| Real space distribution over                                  4 groups
 RS_GRID| Real space distribution along direction                              2
 RS_GRID| Border size                                                         38
 RS_GRID| Real space distribution over                                 10 groups
 RS_GRID| Real space distribution along direction                              3
 RS_GRID| Border size                                                         38
 RS_GRID|   Distribution                         Average         Max         Min
 RS_GRID|   Planes                                 103.0         103         103
 RS_GRID|   Distribution                         Average         Max         Min
 RS_GRID|   Planes                                  96.0          96          96

 RS_GRID| Information for grid number                                          3
 RS_GRID|   Bounds   1            -30      29                Points:          60
 RS_GRID|   Bounds   2            -30      29                Points:          60
 RS_GRID|   Bounds   3            -60      59                Points:         120
 RS_GRID| Real space fully replicated
 RS_GRID| Group size                                                           1

 RS_GRID| Information for grid number                                          4
 RS_GRID|   Bounds   1            -18      17                Points:          36
 RS_GRID|   Bounds   2            -18      17                Points:          36
 RS_GRID|   Bounds   3            -36      35                Points:          72
 RS_GRID| Real space fully replicated
 RS_GRID| Group size                                                           1

  HFX_INFO| Replica ID:                                                        1
  HFX_INFO| FRACTION:                                               0.2000000000
  HFX_INFO| Interaction Potential:                                     TRUNCATED
  HFX_INFO| Cutoff Radius [angstrom]:                               6.0000000000
  HFX_INFO| EPS_SCHWARZ:                                                 1.0E-08
  HFX_INFO| EPS_SCHWARZ_FORCES                                           1.0E-06
  HFX_INFO| EPS_STORAGE_SCALING:                                         1.0E-01
  HFX_INFO| NBINS:                                                            64
  HFX_INFO| BLOCK_SIZE:                                                        2
  HFX_INFO| NUMBER_OF_SHELLS:                                               AUTO
  HFX_INFO| Number of periodic shells considered:                             -1
  HFX_INFO| Number of periodic cells considered:                              27


 Number of electrons:                                                        320
 Number of occupied orbitals:                                                160
 Number of molecular orbitals:                                               210

 Number of orbital functions:                                               1152
 Number of independent orbital functions:                                   1152

 Extrapolation method: initial_guess

 *** WARNING in qs_initial_guess.F:309 :: User requested to restart the    ***
 *** wavefunction from the file named: Diag_libra-2001-RESTART.wfn. This   ***
 *** file does not exist. Please check the existence of the file or change ***
 *** properly the value of the keyword WFN_RESTART_FILE_NAME. Calculation  ***
 *** continues using ATOMIC GUESS.                                         ***


 Atomic guess: The first density matrix is obtained in terms of atomic orbitals
               and electronic configurations assigned to each atomic kind

 Guess for atomic kind: Si

 Electronic structure
    Total number of core electrons                                         10.00
    Total number of valence electrons                                       4.00
    Total number of electrons                                              14.00
    Multiplicity                                                   not specified
    S   [  2.00  2.00] 2.00
    P   [  6.00] 2.00


 *******************************************************************************
                  Iteration          Convergence                     Energy [au]
 *******************************************************************************
                          1        0.526541E-01                  -3.659692963728
                          2        0.125823E-01                  -3.661785675622
                          3        0.408986E-04                  -3.661911567360
                          4        0.675570E-07                  -3.661911568709

 Energy components [Hartree]           Total Energy ::           -3.661911568709
                                        Band Energy ::           -0.941881516273
                                     Kinetic Energy ::            1.409736465412
                                   Potential Energy ::           -5.071648034121
                                      Virial (-V/T) ::            3.597585902439
                                        Core Energy ::           -5.690149137281
                                          XC Energy ::           -0.992569238249
                                     Coulomb Energy ::            3.020806806821
                       Total Pseudopotential Energy ::           -7.143143335066
                       Local Pseudopotential Energy ::           -8.006124475851
                    Nonlocal Pseudopotential Energy ::            0.862981140786
                                        Confinement ::            0.432577323720

 Orbital energies  State     L     Occupation   Energy[a.u.]          Energy[eV]

                       1     0          2.000      -0.357276           -9.721984

                       1     1          2.000      -0.113664           -3.092965


 Total Electron Density at R=0:                                         0.000026

 Guess for atomic kind: H

 Electronic structure
    Total number of core electrons                                          0.00
    Total number of valence electrons                                       1.00
    Total number of electrons                                               1.00
    Multiplicity                                                   not specified
    S      1.00


 *******************************************************************************
                  Iteration          Convergence                     Energy [au]
 *******************************************************************************
                          1        0.250972E-02                  -0.375256815885
                          2        0.570752E-04                  -0.375258666164
                          3        0.832405E-09                  -0.375258667122

 Energy components [Hartree]           Total Energy ::           -0.375258667122
                                        Band Energy ::           -0.076317618391
                                     Kinetic Energy ::            0.771356566341
                                   Potential Energy ::           -1.146615233463
                                      Virial (-V/T) ::            1.486491829455
                                        Core Energy ::           -0.456090715790
                                          XC Energy ::           -0.314218627334
                                     Coulomb Energy ::            0.395050676003
                       Total Pseudopotential Energy ::           -1.238482237174
                       Local Pseudopotential Energy ::           -1.238482237174
                    Nonlocal Pseudopotential Energy ::            0.000000000000
                                        Confinement ::            0.110349550431

 Orbital energies  State     L     Occupation   Energy[a.u.]          Energy[eV]

                       1     0          1.000      -0.076318           -2.076708


 Total Electron Density at R=0:                                         0.425022

 Guess for atomic kind: Ge

 Electronic structure
    Total number of core electrons                                         28.00
    Total number of valence electrons                                       4.00
    Total number of electrons                                              32.00
    Multiplicity                                                   not specified
    S   [  2.00  2.00  2.00] 2.00
    P   [  6.00  6.00] 2.00
    D   [ 10.00]


 *******************************************************************************
                  Iteration          Convergence                     Energy [au]
 *******************************************************************************
                          1        0.142224                      -3.669910672039
                          2        0.333188E-01                  -3.687823698339
                          3        0.522642E-04                  -3.688875018994
                          4        0.333285E-05                  -3.688875020047
                          5        0.154106E-05                  -3.688875020053
                          6        0.996835E-06                  -3.688875020055

 Energy components [Hartree]           Total Energy ::           -3.688875020055
                                        Band Energy ::           -0.991816616960
                                     Kinetic Energy ::            1.446010121603
                                   Potential Energy ::           -5.134885141658
                                      Virial (-V/T) ::            3.551071368687
                                        Core Energy ::           -5.696847161393
                                          XC Energy ::           -0.988567154744
                                     Coulomb Energy ::            2.996539296082
                       Total Pseudopotential Energy ::           -7.185566698510
                       Local Pseudopotential Energy ::           -7.622158091196
                    Nonlocal Pseudopotential Energy ::            0.436591392686
                                        Confinement ::            0.427094155139

 Orbital energies  State     L     Occupation   Energy[a.u.]          Energy[eV]

                       1     0          2.000      -0.391724          -10.659354

                       1     1          2.000      -0.104184           -2.834997


 Total Electron Density at R=0:                                         0.000078
 Re-scaling the density matrix to get the right number of electrons
                  # Electrons              Trace(P)               Scaling factor
                          320               320.000                        1.000


 SCF WAVEFUNCTION OPTIMIZATION

  Step     Update method      Time    Convergence         Total energy    Change
  ------------------------------------------------------------------------------

  HFX_MEM_INFO| Est. max. program size before HFX [MiB]:                     519

 *** WARNING in hfx_energy_potential.F:591 :: The Kohn Sham matrix is not  ***
 *** 100% occupied. This may result in incorrect Hartree-Fock results. Try ***
 *** to decrease EPS_PGF_ORB and EPS_FILTER_MATRIX in the QS section. For  ***
 *** more information see FAQ: https://www.cp2k.org/faq:hfx_eps_warning    ***

  HFX_MEM_INFO| Number of cart. primitive ERI's calculated:          16108066632
  HFX_MEM_INFO| Number of sph. ERI's calculated:                      4152079274
  HFX_MEM_INFO| Number of sph. ERI's stored in-core:                  4152078963
  HFX_MEM_INFO| Number of sph. ERI's stored on disk:                           0
  HFX_MEM_INFO| Number of sph. ERI's calculated on the fly:                    0
  HFX_MEM_INFO| Total memory consumption ERI's RAM [MiB]:                   6520
  HFX_MEM_INFO| Whereof max-vals [MiB]:                                      277
  HFX_MEM_INFO| Total compression factor ERI's RAM:                         4.86
  HFX_MEM_INFO| Total memory consumption ERI's disk [MiB]:                     0
  HFX_MEM_INFO| Total compression factor ERI's disk:                        0.00
  HFX_MEM_INFO| Size of density/Fock matrix [MiB]:                             2
  HFX_MEM_INFO| Size of buffers [MiB]:                                         1
  HFX_MEM_INFO| Number of periodic image cells considered:                    27
  HFX_MEM_INFO| Est. max. program size after HFX  [MiB]:                     682

     1 NoMix/Diag. 0.30E+00   46.6     1.39112952      -266.0158608181 -2.66E+02
     2 Broy./Diag. 0.30E+00    6.4     0.88860398      -274.7894325700 -8.77E+00
     3 Broy./Diag. 0.30E+00    6.2     0.33806065      -281.8562857582 -7.07E+00
     4 Broy./Diag. 0.30E+00    6.2     0.09622613      -284.4666329549 -2.61E+00
     5 Broy./Diag. 0.30E+00    6.4     0.03007334      -286.4385500219 -1.97E+00
     6 Broy./Diag. 0.30E+00    6.2     0.02657203      -287.4982442936 -1.06E+00
     7 Broy./Diag. 0.30E+00    6.5     0.00704922      -287.8226427194 -3.24E-01
     8 Broy./Diag. 0.30E+00    6.3     0.01335349      -287.7205037847  1.02E-01
     9 Broy./Diag. 0.30E+00    6.2     0.00731707      -287.7655117041 -4.50E-02
    10 Broy./Diag. 0.30E+00    6.7     0.00657058      -287.8271725087 -6.17E-02
    11 Broy./Diag. 0.30E+00    6.3     0.00525976      -287.8477838620 -2.06E-02
    12 Broy./Diag. 0.30E+00    6.5     0.00422032      -287.9234078212 -7.56E-02
    13 Broy./Diag. 0.30E+00    6.3     0.00169113      -287.9642342491 -4.08E-02
    14 Broy./Diag. 0.30E+00    6.4     0.00242883      -287.9595234080  4.71E-03
    15 Broy./Diag. 0.30E+00    6.2     0.00095176      -287.9600693646 -5.46E-04
    16 Broy./Diag. 0.30E+00    6.3     0.00164477      -287.9558579036  4.21E-03
    17 Broy./Diag. 0.30E+00    6.6     0.00053964      -287.9524926089  3.37E-03
    18 Broy./Diag. 0.30E+00    6.2     0.00072762      -287.9467932179  5.70E-03
    19 Broy./Diag. 0.30E+00    6.4     0.00044425      -287.9459645670  8.29E-04
    20 Broy./Diag. 0.30E+00    6.3     0.00036920      -287.9517666717 -5.80E-03
    21 Broy./Diag. 0.30E+00    6.8     0.00014891      -287.9543788168 -2.61E-03
    22 Broy./Diag. 0.30E+00    6.3     0.00007298      -287.9546830769 -3.04E-04
    23 Broy./Diag. 0.30E+00    6.6     0.00011453      -287.9546692390  1.38E-05
    24 Broy./Diag. 0.30E+00    6.2     0.00014811      -287.9546572588  1.20E-05
    25 Broy./Diag. 0.30E+00    6.6     0.00005914      -287.9556322847 -9.75E-04
    26 Broy./Diag. 0.30E+00    6.3     0.00010990      -287.9560990634 -4.67E-04
    27 Broy./Diag. 0.30E+00    6.3     0.00002637      -287.9564958432 -3.97E-04
    28 Broy./Diag. 0.30E+00    6.6     0.00003224      -287.9565113318 -1.55E-05
    29 Broy./Diag. 0.30E+00    6.2     0.00003984      -287.9567378484 -2.27E-04
    30 Broy./Diag. 0.30E+00    6.6     0.00000778      -287.9571735002 -4.36E-04
    31 Broy./Diag. 0.30E+00    6.4     0.00001601      -287.9572730526 -9.96E-05
    32 Broy./Diag. 0.30E+00    6.6     0.00001471      -287.9572467849  2.63E-05
    33 Broy./Diag. 0.30E+00    6.3     0.00000298      -287.9572909674 -4.42E-05
    34 Broy./Diag. 0.30E+00    6.3     0.00001487      -287.9572922771 -1.31E-06
    35 Broy./Diag. 0.30E+00    6.6     0.00000277      -287.9573328645 -4.06E-05
    36 Broy./Diag. 0.30E+00    6.3     0.00000469      -287.9573548202 -2.20E-05
    37 Broy./Diag. 0.30E+00    6.5     0.00000216      -287.9573618976 -7.08E-06
    38 Broy./Diag. 0.30E+00    6.3     0.00000071      -287.9573588503  3.05E-06

  *** SCF run converged in    38 steps ***


  Electronic density on regular grids:       -319.9999999982        0.0000000018
  Core density on regular grids:              319.9999999279       -0.0000000721
  Total charge density on r-space grids:       -0.0000000703
  Total charge density g-space grids:          -0.0000000703

  Overlap energy of the core charge distribution:               0.00001927007123
  Self energy of the core charge distribution:               -685.99374549079380
  Core Hamiltonian energy:                                    164.06099496018220
  Hartree energy:                                             331.50496348661704
  Exchange-correlation energy:                                -79.89673110665116
  Hartree-Fock Exchange energy:                               -17.18739593339474
  Dispersion energy:                                           -0.44546403635802

  Total energy:                                              -287.95735885032718

   Calculate PDOS at iteration step                                  0

              ---- PDOS: start iteration on the KS states --- 

 *******************************************************************************
 **                                                                           **
 **         ######## #######   #######   ######## #######  ########           **
 **            ##    ##     ## ##     ## ##       ##   ##     ##              **
 **            ##    ##     ## ##     ## ######   #######     ##              **
 **            ##    ##     ## ##     ## ##       ##          ##              **
 **            ##    #######   #######   ##       ##          ##              **
 **                                                                           **
 *******************************************************************************
 
 -------------------------------------------------------------------------------
 -                            TDDFPT Initial Guess                             -
 -------------------------------------------------------------------------------
          State         Occupied      ->      Virtual          Excitation
          number         orbital              orbital          energy (eV)
 -------------------------------------------------------------------------------
             1              160                  161              1.81893
             2              159                  161              2.00941
             3              160                  162              2.02771
             4              160                  163              2.04757
             5              160                  164              2.11381
             6              160                  165              2.18047
             7              159                  162              2.21819
             8              159                  163              2.23805
             9              159                  164              2.30429
            10              159                  165              2.37095
            11              160                  166              2.38336
            12              160                  167              2.41977
            13              160                  168              2.52929
            14              160                  169              2.54484
            15              159                  166              2.57384
            16              160                  170              2.58962
            17              159                  167              2.61024
            18              160                  171              2.63113
            19              160                  172              2.64894
            20              160                  173              2.69417

      Number of active states:                                     158720
 -------------------------------------------------------------------------------
 
 -------------------------------------------------------------------------------
 -                      TDDFPT WAVEFUNCTION OPTIMIZATION                       -
 -------------------------------------------------------------------------------

          Step            Time         Convergence           Conv. states
 -------------------------------------------------------------------------------

    State    Exc. energy (eV)      Convergence (eV)
        1       1.5961283            -2.2280E-01
        2       1.7836009            -2.2581E-01
        3       1.7938917            -2.3382E-01
        4       1.9625654            -8.5001E-02
        5       1.9858816            -1.2792E-01
        6       2.0205505            -1.5992E-01
        7       2.0803226            -1.3787E-01
        8       2.1600212            -7.8025E-02
        9       2.2124925            -9.1794E-02
       10       2.2237115            -1.4724E-01
       11       2.2659990            -1.1736E-01
       12       2.2885756            -1.3119E-01
       13       2.3223174            -2.0697E-01
       14       2.3510763            -1.9376E-01
       15       2.3832772            -1.9056E-01
       16       2.4505241            -1.3910E-01
       17       2.4912635            -1.1898E-01
       18       2.5126180            -1.1851E-01
       19       2.5291991            -1.1974E-01
       20       2.5465025            -1.4767E-01

             1           123.5          8.5927E-03                      0

    State    Exc. energy (eV)      Convergence (eV)
        1       1.5609861            -3.5142E-02
        2       1.7456467            -3.7954E-02
        3       1.7860935            -7.7982E-03
        4       1.9559257            -6.6397E-03
        5       1.9775659            -8.3158E-03
        6       2.0107166            -9.8339E-03
        7       2.0673208            -1.3002E-02
        8       2.1513514            -8.6698E-03
        9       2.1790615            -3.3431E-02
       10       2.2071490            -1.6563E-02
       11       2.2335166            -3.2482E-02
       12       2.2675896            -2.0986E-02
       13       2.2980948            -2.4223E-02
       14       2.3305053            -2.0571E-02
       15       2.3553326            -2.7945E-02
       16       2.4391471            -1.1377E-02
       17       2.4501148            -4.1149E-02
       18       2.4894541            -2.3164E-02
       19       2.5040573            -2.5142E-02
       20       2.5357732            -1.0729E-02

             2           123.5          1.5122E-03                      0

    State    Exc. energy (eV)      Convergence (eV)
        1       1.5551515            -5.8346E-03
        2       1.7394397            -6.2070E-03
        3       1.7853306            -7.6292E-04
        4       1.9554202            -5.0553E-04
        5       1.9768643            -7.0152E-04
        6       2.0095753            -1.1413E-03
        7       2.0655068            -1.8140E-03
        8       2.1495117            -1.8398E-03
        9       2.1755105            -3.5509E-03
       10       2.1989136            -8.2354E-03
       11       2.2247479            -8.7687E-03
       12       2.2584549            -9.1347E-03
       13       2.2938374            -4.2574E-03
       14       2.3269347            -3.5707E-03
       15       2.3510155            -4.3171E-03
       16       2.3769272            -6.2220E-02
       17       2.4012793            -4.8835E-02
       18       2.4356774            -5.3777E-02
       19       2.5003741            -3.6832E-03
       20       2.5090316            -2.6742E-02

             3           122.9          2.2865E-03                      0

[...]
 flops     5 x    18 x    13             19169280       0.0%    100.0%      0.0%
 flops     8 x     2 x    18             42659712       0.0%    100.0%      0.0%
 flops     2 x     8 x    18             42856704       0.0%    100.0%      0.0%
 flops    13 x    18 x    13             49840128       0.0%    100.0%      0.0%
 flops     5 x     1 x     5             63599500       0.0%    100.0%      0.0%
 flops     5 x     5 x    18             72902700       0.0%    100.0%      0.0%
 flops     2 x     2 x    32            105354240       0.0%    100.0%      0.0%
 flops     5 x     1 x    13            165601280       0.0%    100.0%      0.0%
 flops    13 x     1 x     5            165601280       0.0%    100.0%      0.0%
 flops     8 x     8 x    18            182108160       0.0%    100.0%      0.0%
 flops     5 x    13 x    18            186900480       0.0%    100.0%      0.0%
 flops    13 x     5 x    18            186900480       0.0%    100.0%      0.0%
 flops   283 x   111 x    32            361877760       0.0%    100.0%      0.0%
 flops   286 x   111 x    32            365713920       0.0%    100.0%      0.0%
 flops   288 x   111 x    32            368271360       0.0%    100.0%      0.0%
 flops   295 x   111 x    32            377222400       0.0%    100.0%      0.0%
 flops    13 x     1 x    13            430563328       0.0%    100.0%      0.0%
 flops     8 x     2 x    32            455036928       0.0%    100.0%      0.0%
 flops     2 x     8 x    32            457138176       0.0%    100.0%      0.0%
 flops    13 x    13 x    18            493534080       0.0%    100.0%      0.0%
 flops     5 x     5 x    32            777628800       0.0%    100.0%      0.0%
 flops   283 x   113 x    32           1105194240       0.0%    100.0%      0.0%
 flops   286 x   113 x    32           1116910080       0.0%    100.0%      0.0%
 flops   288 x   113 x    32           1124720640       0.0%    100.0%      0.0%
 flops   283 x   116 x    32           1134535680       0.0%    100.0%      0.0%
 flops   286 x   116 x    32           1146562560       0.0%    100.0%      0.0%
 flops   295 x   113 x    32           1152057600       0.0%    100.0%      0.0%
 flops   283 x   118 x    32           1154096640       0.0%    100.0%      0.0%
 flops   288 x   116 x    32           1154580480       0.0%    100.0%      0.0%
 flops   286 x   118 x    32           1166330880       0.0%    100.0%      0.0%
 flops   288 x   118 x    32           1174487040       0.0%    100.0%      0.0%
 flops   295 x   116 x    32           1182643200       0.0%    100.0%      0.0%
 flops   295 x   118 x    32           1203033600       0.0%    100.0%      0.0%
 flops     8 x     8 x    32           1942487040       0.0%    100.0%      0.0%
 flops     5 x    13 x    32           1993605120       0.0%    100.0%      0.0%
 flops    13 x     5 x    32           1993605120       0.0%    100.0%      0.0%
 flops    13 x    13 x    32           5264363520       0.0%    100.0%      0.0%
 flops     2 x    32 x     2           6535987200       0.0%    100.0%      0.0%
 flops     5 x    32 x     5          28001776000       0.0%    100.0%      0.0%
 flops     2 x    32 x     8          28805529600       0.0%    100.0%      0.0%
 flops     8 x    32 x     2          28805529600       0.0%    100.0%      0.0%
 flops     5 x    32 x    13          72911421440       0.0%    100.0%      0.0%
 flops    13 x    32 x     5          72911421440       0.0%    100.0%      0.0%
 flops     8 x    32 x     8         120795955200       0.0%    100.0%      0.0%
 flops    13 x    32 x    13         189569695744       0.0%    100.0%      0.0%
 flops inhomo. stacks                           0       0.0%      0.0%      0.0%
 flops total                       578.753419E+09       0.0%    100.0%      0.0%
 flops max/rank                     24.569216E+09       0.0%    100.0%      0.0%
 matmuls inhomo. stacks                         0       0.0%      0.0%      0.0%
 matmuls total                          190823917       0.0%    100.0%      0.0%
 number of processed stacks               2189440       0.0%    100.0%      0.0%
 average stack size                                     0.0      87.2       0.0
 marketing flops                   589.933904E+09
 -------------------------------------------------------------------------------
 # multiplications                           1469
 max memory usage/rank             865.083392E+06
 # max total images/rank                        5
 # max 3D layers                                1
 # MPI messages exchanged                 1939080
 MPI messages size (bytes):
  total size                       125.599801E+09
  min size                           0.000000E+00
  max size                         177.000000E+03
  average size                      64.772883E+03
 MPI breakdown and total messages size (bytes):
             size <=      128              522306                        0
       128 < size <=     8192               18720                  9058176
      8192 < size <=    32768              386418               7377962112
     32768 < size <=   131072              595476              58767636960
    131072 < size <=  4194304              416160              59437219680
   4194304 < size <= 16777216                   0                        0
  16777216 < size                               0                        0
 -------------------------------------------------------------------------------

 *** WARNING in dbcsr_mm.F:294 :: Using a non-square number of MPI ranks ***
 *** might lead to poor performance. Used ranks: 40 Suggested: 36 81     ***

 -------------------------------------------------------------------------------
 -                                                                             -
 -                      DBCSR MESSAGE PASSING PERFORMANCE                      -
 -                                                                             -
 -------------------------------------------------------------------------------
 ROUTINE             CALLS      AVE VOLUME [Bytes]
 MP_Bcast               49                     12.
 MP_Allreduce         5063                      8.
 MP_Alltoall         45908                  33427.
 MP_ISend           111418                  31974.
 MP_IRecv           117068                  29945.
 -------------------------------------------------------------------------------

 -------------------------------------------------------------------------------
 -                                                                             -
 -                                GRID STATISTICS                              -
 -                                                                             -
 -------------------------------------------------------------------------------
 LP    KERNEL             BACKEND                              COUNT     PERCENT
 1     collocate general  REF                                8903228      16.32%
 3     collocate general  REF                                8775360      16.09%
 3     integrate general  REF                                8702232      15.95%
 0     collocate general  REF                                7318042      13.42%
 2     collocate general  REF                                7298773      13.38%
 2     integrate general  REF                                4596018       8.43%
 4     collocate general  REF                                4494960       8.24%
 4     integrate general  REF                                4457502       8.17%
 -------------------------------------------------------------------------------

 MEMORY| Estimated peak process memory [MiB]                                 826

 -------------------------------------------------------------------------------
 ----                             MULTIGRID INFO                            ----
 -------------------------------------------------------------------------------
 count for grid        1:         222266          cutoff [a.u.]          175.00
 count for grid        2:         200108          cutoff [a.u.]           58.33
 count for grid        3:         186224          cutoff [a.u.]           19.44
 count for grid        4:          73815          cutoff [a.u.]            6.48
 total gridlevel count  :         682413

 -------------------------------------------------------------------------------
 -                                                                             -
 -                         MESSAGE PASSING PERFORMANCE                         -
 -                                                                             -
 -------------------------------------------------------------------------------

 ROUTINE             CALLS      AVE VOLUME [Bytes]
 MP_Group                4
 MP_Bcast              627                1774873.
 MP_Allreduce        21924                    305.
 MP_Sync              1337
 MP_Alltoall          7156               10542787.
 MP_ISendRecv        74568                  63169.
 MP_Wait            149289
 MP_comm_split          70
 MP_ISend            67444                 299674.
 MP_IRecv            68264                 297176.
 MP_Recv               378                 149650.
 -------------------------------------------------------------------------------


 -------------------------------------------------------------------------------
 -                                                                             -
 -                           R E F E R E N C E S                               -
 -                                                                             -
 -------------------------------------------------------------------------------
 
 CP2K version 9.1, the CP2K developers group (2021).
 CP2K is freely available from https://www.cp2k.org/ .

 Kuehne,Thomas D.; Iannuzzi,Marcella; Del Ben,Mauro;
 Rybkin,Vladimir V.; Seewald,Patrick; Stein,Frederick; Laino,Teodoro;
 Khaliullin,Rustam Z.; Schuett,Ole; Schiffmann,Florian; Golze,Dorothea;
 Wilhelm,Jan; Chulkov,Sergey; Bani-Hashemian,Mohammad Hossein;
 Weber,Valery; Borstnik,Urban; Taillefumier,Mathieu;
 Jakobovits,Alice Shoshana; Lazzaro,Alfio; Pabst,Hans; Mueller,Tiziano;
 Schade,Robert; Guidon,Manuel; Andermatt,Samuel; Holmberg,Nico;
 Schenter,Gregory K.; Hehn,Anna; Bussy,Augustin; Belleflamme,Fabian;
 Tabacchi,Gloria; Gloess,Andreas; Lass,Michael; Bethune,Iain;
 Mundy,Christopher J.; Plessl,Christian; Watkins,Matt;
 VandeVondele,Joost; Krack,Matthias; Hutter,Juerg. 
 The Journal of Chemical Physics, 152 (19), (2020). 
 CP2K: An electronic structure and molecular dynamics software package -
 Quickstep: Efficient and accurate electronic structure calculations.
 https://doi.org/10.1063/5.0007045

 Goerigk, Lars; Hansen, Andreas; Bauer, Christoph; Ehrlich, Stephan;
 Najibi, Asim; Grimme, Stefan. , 19 (48), (2017). 
 A look at the density functional theory zoo with the advanced GMTKN55 database
 for general main group thermochemistry, kinetics and noncovalent interactions.
 https://doi.org/10.1039/C7CP04913G

 Schuett, Ole; Messmer, Peter; Hutter, Juerg; VandeVondele, Joost. 
 Electronic Structure Calculations on Graphics Processing Units, John
 Wiley & Sons, Ltd, 173-190 (2016). 
 GPU-Accelerated Sparse Matrix-Matrix Multiplication for
 Linear Scaling Density Functional Theory.
 https://doi.org/10.1002/9781118670712.ch8

 Heinecke, A; Henry, G; Hutchinson, M; Pabst, H. 
 Proceedings of Intl. Supercomputing Conference, 981-991 (2016). 
 LIBXSMM: Accelerating Small Matrix Multiplications
 by Runtime Code Generation.
 https://doi.org/10.1109/SC.2016.83

 Borstnik, U; VandeVondele, J; Weber, V; Hutter, J. 
 PARALLEL COMPUTING, 40 (5-6), 47-58 (2014). 
 Sparse matrix multiplication: The distributed block-compressed sparse
 row library.
 https://doi.org/10.1016/j.parco.2014.03.012

 Hutter, J; Iannuzzi, M; Schiffmann, F; VandeVondele, J. 
 WIREs Comput Mol Sci., 4 (1), 15-25 (2014). 
 CP2K: atomistic simulations of condensed matter systems.
 https://doi.org/10.1002/wcms.1159

 Grimme, S; Ehrlich, S; Goerigk, L. 
 JOURNAL OF COMPUTATIONAL CHEMISTRY, 32, 1456 (2011). 
 Effect of the damping function in dispersion corrected density functional theory.
 https://doi.org/10.1002/jcc.21759

 Guidon, M; Hutter, J; VandeVondele, J. 
 JOURNAL OF CHEMICAL THEORY AND COMPUTATION, 6 (8), 2348-2364 (2010). 
 Auxiliary Density Matrix Methods for Hartree-Fock Exchange Calculations.
 https://doi.org/10.1021/ct1002225

 Grimme, S; Antony, J; Ehrlich, S; Krieg, H. 
 JOURNAL OF CHEMICAL PHYSICS, 132 (15), 154104 (2010). 
 A consistent and accurate ab initio parametrization of density
 functional dispersion correction (DFT-D) for the 94 elements H-Pu.
 https://doi.org/10.1063/1.3382344

 Guidon, M; Hutter, J; VandeVondele, J. 
 JOURNAL OF CHEMICAL THEORY AND COMPUTATION, 5 (11), 3010-3021 (2009). 
 Robust Periodic Hartree-Fock Exchange for Large-Scale Simulations Using
 Gaussian Basis Sets.
 https://doi.org/10.1021/ct900494g

 Guidon, M; Schiffmann, F; Hutter, J; VandeVondele, J. 
 JOURNAL OF CHEMICAL PHYSICS, 128 (21), 214104 (2008). 
 Ab initio molecular dynamics using hybrid density functionals.
 https://doi.org/10.1063/1.2931945

 VandeVondele, J; Hutter, J. 
 JOURNAL OF CHEMICAL PHYSICS, 127 (11), 114105 (2007). 
 Gaussian basis sets for accurate calculations on molecular systems in
 gas and condensed phases.
 https://doi.org/10.1063/1.2770708

 Krack, M. 
 THEORETICAL CHEMISTRY ACCOUNTS, 114 (1-3), 145-152 (2005). 
 Pseudopotentials for H to Kr optimized for gradient-corrected
 exchange-correlation functionals.
 https://doi.org/10.1007/s00214-005-0655-y

 VandeVondele, J; Krack, M; Mohamed, F; Parrinello, M; Chassaing, T;
 Hutter, J. COMPUTER PHYSICS COMMUNICATIONS, 167 (2), 103-128 (2005). 
 QUICKSTEP: Fast and accurate density functional calculations using a
 mixed Gaussian and plane waves approach.
 https://doi.org/10.1016/j.cpc.2004.12.014

 Frigo, M; Johnson, SG. 
 PROCEEDINGS OF THE IEEE, 93 (2), 216-231 (2005). 
 The design and implementation of FFTW3.
 https://doi.org/10.1109/JPROC.2004.840301

 Iannuzzi, M; Chassaing, T; Wallman, T; Hutter, J. 
 CHIMIA, 59 (7-8), 499-503 (2005). 
 Ground and excited state density functional calculations with the
 Gaussian and augmented-plane-wave method.
 https://doi.org/10.2533/000942905777676164

 Martin,Richard L.. 
 The Journal of Chemical Physics, 118 (11), 4775-4777 (2003). 
 Natural transition orbitals.
 https://doi.org/10.1063/1.1558471

 Hartwigsen, C; Goedecker, S; Hutter, J. 
 PHYSICAL REVIEW B, 58 (7), 3641-3662 (1998). 
 Relativistic separable dual-space Gaussian pseudopotentials from H to Rn.
 https://doi.org/10.1103/PhysRevB.58.3641

 Lippert, G; Hutter, J; Parrinello, M. 
 MOLECULAR PHYSICS, 92 (3), 477-487 (1997). 
 A hybrid Gaussian and plane wave density functional scheme.
 https://doi.org/10.1080/002689797170220

 Goedecker, S; Teter, M; Hutter, J. 
 PHYSICAL REVIEW B, 54 (3), 1703-1710 (1996). 
 Separable dual-space Gaussian pseudopotentials.
 https://doi.org/10.1103/PhysRevB.54.1703

 BECKE, AD. PHYSICAL REVIEW A, 38 (6), 3098-3100 (1988). 
 DENSITY-FUNCTIONAL EXCHANGE-ENERGY APPROXIMATION WITH CORRECT
 ASYMPTOTIC-BEHAVIOR.
 https://doi.org/10.1103/PhysRevA.38.3098

 LEE, CT; YANG, WT; PARR, RG. 
 PHYSICAL REVIEW B, 37 (2), 785-789 (1988). 
 DEVELOPMENT OF THE COLLE-SALVETTI CORRELATION-ENERGY FORMULA INTO A
 FUNCTIONAL OF THE ELECTRON-DENSITY.
 https://doi.org/10.1103/PhysRevB.37.785

 VOSKO, SH; WILK, L; NUSAIR, M. 
 CANADIAN JOURNAL OF PHYSICS, 58 (8), 1200-1211 (1980). 
 ACCURATE SPIN-DEPENDENT ELECTRON LIQUID CORRELATION ENERGIES FOR LOCAL
 SPIN-DENSITY CALCULATIONS - A CRITICAL ANALYSIS.
 https://doi.org/10.1139/p80-159


 -------------------------------------------------------------------------------
 -                                                                             -
 -                                T I M I N G                                  -
 -                                                                             -
 -------------------------------------------------------------------------------
 SUBROUTINE                       CALLS  ASD         SELF TIME        TOTAL TIME
                                MAXIMUM       AVERAGE  MAXIMUM  AVERAGE  MAXIMUM
 CP2K                                 1  1.0    0.020    0.098 1547.047 1547.056
 qs_energies                          1  2.0    0.000    0.000 1546.367 1546.376
 qs_energies_properties               1  3.0    0.000    0.000 1239.954 1240.004
 tddfpt                               1  4.0    0.000    0.001 1239.954 1240.004
 tddfpt_davidson_solver               2  5.0    0.004    0.088 1232.943 1232.950
 tddfpt_compute_Aop_evects           10  6.0    0.000    0.000 1228.158 1228.166
 integrate_four_center              238  9.0    0.297    0.676 1103.136 1103.141
 integrate_four_center_main         238 10.0    0.075    0.080 1059.494 1076.602
 integrate_four_center_bin        15232 11.0 1059.419 1076.529 1059.419 1076.529
 tddfpt_apply_hfx                    10  7.0    0.004    0.004  896.745  896.750
 tddft_hfx_matrix                   200  8.0    0.004    0.005  891.620  891.625
 fhxc_kernel                         10  7.0    0.009    0.010  330.105  330.109
 scf_env_do_scf                       1  3.0    0.000    0.000  301.593  301.617
 scf_env_do_scf_inner_loop           38  4.0    0.002    0.055  301.593  301.617
 qs_ks_update_qs_env                 38  5.0    0.000    0.000  256.142  256.145
 rebuild_ks_matrix                   38  6.0    0.000    0.000  256.082  256.084
 qs_ks_build_kohn_sham_matrix        38  7.0    0.005    0.006  256.082  256.083
 hfx_ks_matrix                       38  8.0    0.001    0.001  211.533  211.534
 calculate_rho_elec                 479  8.7    0.956    1.067  186.424  186.829
 pw_transfer                       6169 10.2    0.507    0.636  152.079  152.866
 fft_wrap_pw1pw2                   5693 11.2    0.067    0.079  150.269  150.952
 fft_wrap_pw1pw2_180               3542 12.0   13.072   14.316  143.821  144.269
 qs_rho_update_rho                  240  7.5    0.002    0.002  115.506  115.908
 fft3d_ps                          5693 13.2   62.294   66.950  110.406  111.905
 density_rs2pw                      479  9.7    0.029    0.033   91.625   98.537
 integrate_v_rspace                 238  8.2    0.008    0.009   94.926   95.433
 tddfpt_apply_xc_analytic           400  8.0    1.558    1.766   91.212   91.737
 grid_collocate_task_list           479  9.7   76.815   80.981   76.815   80.981
 rs_pw_transfer                    2869 10.5    0.038    0.046   72.490   80.299
 tddfpt_construct_aux_fit_densi     201  8.0    0.004    0.005   62.053   62.554
 xc_calc_2nd_deriv_analytical       400  9.0    4.541    5.079   59.309   59.474
 grid_integrate_task_list           238  9.2   52.759   55.737   52.759   55.737
 mp_sync                           1337 10.6   37.917   55.617   37.917   55.617
 mp_alltoall_z22v                  5693 15.2   32.723   41.268   32.723   41.268
 rs_pw_transfer_RS2PW_180           480 11.7   16.972   18.871   31.671   39.377
 potential_pw2rs                    238  9.2    0.038    0.042   38.437   38.934
 mp_waitany                       67444 12.5   22.216   33.032   22.216   33.032
 -------------------------------------------------------------------------------

 The number of warnings for this run is : 3
 
 -------------------------------------------------------------------------------
  **** **** ******  **  PROGRAM ENDED AT                 2024-11-11 10:48:31.849
 ***** ** ***  *** **   PROGRAM RAN ON            bc12007.int.ets1.calculquebec.
 **    ****   ******    PROGRAM RAN BY                                  ekadashi
 ***** **    ** ** **   PROGRAM PROCESS ID                               2884660
  **** **  *******  **  PROGRAM STOPPED IN /scratch/ekadashi/Libra_CP2K/SiGe_Het
                                           ero/step2_B3LYP/SET2/job1
