 DBCSR| CPU Multiplication driver                                           XSMM
 DBCSR| Multrec recursion limit                                              512
 DBCSR| Multiplication stack size                                           1000
 DBCSR| Maximum elements for images                                    UNLIMITED
 DBCSR| Multiplicative factor virtual images                                   1
 DBCSR| Use multiplication densification                                       T
 DBCSR| Multiplication size stacks                                             3
 DBCSR| Use memory pool for CPU allocation                                     F
 DBCSR| Number of 3D layers                                               SINGLE
 DBCSR| Use MPI memory allocation                                              F
 DBCSR| Use RMA algorithm                                                      F
 DBCSR| Use Communication thread                                               T
 DBCSR| Communication thread load                                             87
 DBCSR| MPI: My node id                                                        0
 DBCSR| MPI: Number of nodes                                                  40
 DBCSR| OMP: Current number of threads                                         1
 DBCSR| OMP: Max number of threads                                             1
 DBCSR| Split modifier for TAS multiplication algorithm                  1.0E+00


  **** **** ******  **  PROGRAM STARTED AT               2024-11-11 09:55:54.242
 ***** ** ***  *** **   PROGRAM STARTED ON        bc12007.int.ets1.calculquebec.
 **    ****   ******    PROGRAM STARTED BY                              ekadashi
 ***** **    ** ** **   PROGRAM PROCESS ID                               2869216
  **** **  *******  **  PROGRAM STARTED IN /scratch/ekadashi/Libra_CP2K/SiGe_Het
                                           ero/step2_B3LYP/SET2/job1

 CP2K| version string:                                          CP2K version 9.1
 CP2K| source code revision number:                                  git:d8d7100
 CP2K| cp2kflags: omp libint fftw3 libxc parallel mpi3 scalapack xsmm plumed2   
 CP2K| is freely available from                            https://www.cp2k.org/
 CP2K| Program compiled at                       Thu 20 Jan 2022 10:47:29 PM UTC
 CP2K| Program compiled on                           build-node.computecanada.ca
 CP2K| Program compiled for                                   Linux-x86-64-gofbf
 CP2K| Data directory path    /cvmfs/soft.computecanada.ca/easybuild/software/20
 CP2K| Input file name                                       Diag_libra-2000.inp

 GLOBAL| Force Environment number                                              1
 GLOBAL| Basis set file name                                        BASIS_MOLOPT
 GLOBAL| Potential file name                                           POTENTIAL
 GLOBAL| MM Potential file name                                     MM_POTENTIAL
 GLOBAL| Coordinate file name                                     coord-2000.xyz
 GLOBAL| Method name                                                        CP2K
 GLOBAL| Project name                                            Diag_libra-2000
 GLOBAL| Run type                                                         ENERGY
 GLOBAL| FFT library                                                       FFTW3
 GLOBAL| Diagonalization library                                       ScaLAPACK
 GLOBAL| Orthonormality check for eigenvectors                          DISABLED
 GLOBAL| Matrix multiplication library                                 ScaLAPACK
 GLOBAL| All-to-all communication in single precision                          F
 GLOBAL| FFTs using library dependent lengths                                  F
 GLOBAL| Grid backend                                                       AUTO
 GLOBAL| Global print level                                               MEDIUM
 GLOBAL| MPI I/O enabled                                                       T
 GLOBAL| Total number of message passing processes                            40
 GLOBAL| Number of threads for this process                                    1
 GLOBAL| This output is from process                                           0
 GLOBAL| Stack size for threads created by OpenMP (OMP_STACKSIZE)        default
 GLOBAL| CPU model name                 Intel(R) Xeon(R) Gold 6148 CPU @ 2.40GHz
 GLOBAL| CPUID                                                              1003

 MEMORY| system memory details [Kb]
 MEMORY|                        rank 0           min           max       average
 MEMORY| MemTotal            196639196     196639196     196639196     196639196
 MEMORY| MemFree             175461576     175461576     175461576     175461576
 MEMORY| Buffers                    76            76            76            76
 MEMORY| Cached                4710672       4710672       4710672       4710672
 MEMORY| Slab                  2243172       2243172       2243172       2243172
 MEMORY| SReclaimable           399396        399396        399396        399396
 MEMORY| MemLikelyFree       180571720     180571720     180571720     180571720


 *** Fundamental physical constants (SI units) ***

 *** Literature: B. J. Mohr and B. N. Taylor,
 ***             CODATA recommended values of the fundamental physical
 ***             constants: 2006, Web Version 5.1
 ***             http://physics.nist.gov/constants

 Speed of light in vacuum [m/s]                             2.99792458000000E+08
 Magnetic constant or permeability of vacuum [N/A**2]       1.25663706143592E-06
 Electric constant or permittivity of vacuum [F/m]          8.85418781762039E-12
 Planck constant (h) [J*s]                                  6.62606896000000E-34
 Planck constant (h-bar) [J*s]                              1.05457162825177E-34
 Elementary charge [C]                                      1.60217648700000E-19
 Electron mass [kg]                                         9.10938215000000E-31
 Electron g factor [ ]                                     -2.00231930436220E+00
 Proton mass [kg]                                           1.67262163700000E-27
 Fine-structure constant                                    7.29735253760000E-03
 Rydberg constant [1/m]                                     1.09737315685270E+07
 Avogadro constant [1/mol]                                  6.02214179000000E+23
 Boltzmann constant [J/K]                                   1.38065040000000E-23
 Atomic mass unit [kg]                                      1.66053878200000E-27
 Bohr radius [m]                                            5.29177208590000E-11

 *** Conversion factors ***

 [u] -> [a.u.]                                              1.82288848426455E+03
 [Angstrom] -> [Bohr] = [a.u.]                              1.88972613288564E+00
 [a.u.] = [Bohr] -> [Angstrom]                              5.29177208590000E-01
 [a.u.] -> [s]                                              2.41888432650478E-17
 [a.u.] -> [fs]                                             2.41888432650478E-02
 [a.u.] -> [J]                                              4.35974393937059E-18
 [a.u.] -> [N]                                              8.23872205491840E-08
 [a.u.] -> [K]                                              3.15774647902944E+05
 [a.u.] -> [kJ/mol]                                         2.62549961709828E+03
 [a.u.] -> [kcal/mol]                                       6.27509468713739E+02
 [a.u.] -> [Pa]                                             2.94210107994716E+13
 [a.u.] -> [bar]                                            2.94210107994716E+08
 [a.u.] -> [atm]                                            2.90362800883016E+08
 [a.u.] -> [eV]                                             2.72113838565563E+01
 [a.u.] -> [Hz]                                             6.57968392072181E+15
 [a.u.] -> [1/cm] (wave numbers)                            2.19474631370540E+05
 [a.u./Bohr**2] -> [1/cm]                                   5.14048714338585E+03
 

 CELL_TOP| Volume [angstrom^3]:                                      6540.008810
 CELL_TOP| Vector a [angstrom    15.928     0.000     0.000   |a| =    15.927500
 CELL_TOP| Vector b [angstrom    -7.965    13.786     0.000   |b| =    15.921700
 CELL_TOP| Vector c [angstrom    -0.000     0.000    29.784   |c| =    29.783600
 CELL_TOP| Angle (b,c), alpha [degree]:                                89.999800
 CELL_TOP| Angle (a,c), beta  [degree]:                                90.000200
 CELL_TOP| Angle (a,b), gamma [degree]:                               120.015200
 CELL_TOP| Numerically orthorhombic:                                          NO

 GENERATE|  Preliminary Number of Bonds generated:                             0
 GENERATE|  Achieved consistency in connectivity generation.

 CELL| Volume [angstrom^3]:                                          6540.008810
 CELL| Vector a [angstrom]:      15.928     0.000     0.000   |a| =    15.927500
 CELL| Vector b [angstrom]:      -7.965    13.786     0.000   |b| =    15.921700
 CELL| Vector c [angstrom]:      -0.000     0.000    29.784   |c| =    29.783600
 CELL| Angle (b,c), alpha [degree]:                                    89.999800
 CELL| Angle (a,c), beta  [degree]:                                    90.000200
 CELL| Angle (a,b), gamma [degree]:                                   120.015200
 CELL| Numerically orthorhombic:                                              NO

 CELL_REF| Volume [angstrom^3]:                                      6540.008810
 CELL_REF| Vector a [angstrom    15.928     0.000     0.000   |a| =    15.927500
 CELL_REF| Vector b [angstrom    -7.965    13.786     0.000   |b| =    15.921700
 CELL_REF| Vector c [angstrom    -0.000     0.000    29.784   |c| =    29.783600
 CELL_REF| Angle (b,c), alpha [degree]:                                89.999800
 CELL_REF| Angle (a,c), beta  [degree]:                                90.000200
 CELL_REF| Angle (a,b), gamma [degree]:                               120.015200
 CELL_REF| Numerically orthorhombic:                                          NO

 *******************************************************************************
 *******************************************************************************
 **                                                                           **
 **     #####                         ##              ##                      **
 **    ##   ##            ##          ##              ##                      **
 **   ##     ##                       ##            ######                    **
 **   ##     ##  ##   ##  ##   #####  ##  ##   ####   ##    #####    #####    **
 **   ##     ##  ##   ##  ##  ##      ## ##   ##      ##   ##   ##  ##   ##   **
 **   ##  ## ##  ##   ##  ##  ##      ####     ###    ##   ######   ######    **
 **    ##  ###   ##   ##  ##  ##      ## ##      ##   ##   ##       ##        **
 **     #######   #####   ##   #####  ##  ##  ####    ##    #####   ##        **
 **           ##                                                    ##        **
 **                                                                           **
 **                                                ... make the atoms dance   **
 **                                                                           **
 **            Copyright (C) by CP2K developers group (2000-2021)             **
 **                      J. Chem. Phys. 152, 194103 (2020)                    **
 **                                                                           **
 *******************************************************************************

 DFT| Spin restricted Kohn-Sham (RKS) calculation                            RKS
 DFT| Multiplicity                                                             1
 DFT| Number of spin states                                                    1
 DFT| Charge                                                                   0
 DFT| Self-interaction correction (SIC)                                       NO
 DFT| Cutoffs: density                                              1.000000E-10
 DFT|          gradient                                             1.000000E-10
 DFT|          tau                                                  1.000000E-10
 DFT|          cutoff_smoothing_range                               0.000000E+00
 DFT| XC density smoothing                                                  NONE
 DFT| XC derivatives                                                          PW
 FUNCTIONAL| ROUTINE=NEW
 FUNCTIONAL| BECKE88:
 FUNCTIONAL| A. Becke, Phys. Rev. A 38, 3098 (1988) {LDA version}               
 FUNCTIONAL| LYP:
 FUNCTIONAL| C. Lee, W. Yang, R.G. Parr, Phys. Rev. B, 37, 785 (1988) {LDA versi
 FUNCTIONAL| on}                                                                
 FUNCTIONAL| VWN:
 FUNCTIONAL| S. H. Vosko, L. Wilk and M. Nusair, Can. J. Phys. 58, 1200 (1980) {
 FUNCTIONAL| LDA version}                                                       
 FUNCTIONAL| XALPHA:
 FUNCTIONAL| Dirac/Slater local exchange; parameter=  0.666 {LDA}               
 vdW POTENTIAL|                                                   Pair Potential
 vdW POTENTIAL|          DFT-D3 (Version 3.1)
 vdW POTENTIAL|          Potential Form: S. Grimme et al, JCP 132: 154104 (2010)
 vdW POTENTIAL|          Zero Damping
 vdW POTENTIAL|          Cutoff Radius [Bohr]:                             20.00
 vdW POTENTIAL|          s6 Scaling Factor:                               1.0000
 vdW POTENTIAL|          sr6 Scaling Factor:                              1.2610
 vdW POTENTIAL|          s8 Scaling Factor:                               1.7030
 vdW POTENTIAL|          Cutoff for CN calculation:                   0.1000E-05

 QS| Method:                                                                 GPW
 QS| Density plane wave grid type                        NON-SPHERICAL FULLSPACE
 QS| Number of grid levels:                                                    4
 QS| Density cutoff [a.u.]:                                                175.0
 QS| Multi grid cutoff [a.u.]: 1) grid level                               175.0
 QS|                           2) grid level                                58.3
 QS|                           3) grid level                                19.4
 QS|                           4) grid level                                 6.5
 QS| Grid level progression factor:                                          3.0
 QS| Relative density cutoff [a.u.]:                                        25.0
 QS| Interaction thresholds: eps_pgf_orb:                                1.0E-05
 QS|                         eps_filter_matrix:                          0.0E+00
 QS|                         eps_core_charge:                            1.0E-12
 QS|                         eps_rho_gspace:                             1.0E-10
 QS|                         eps_rho_rspace:                             1.0E-10
 QS|                         eps_gvg_rspace:                             1.0E-05
 QS|                         eps_ppl:                                    1.0E-02
 QS|                         eps_ppnl:                                   1.0E-07


 ATOMIC KIND INFORMATION

  1. Atomic kind: Si                                    Number of atoms:      32

     Orbital Basis Set                                     DZVP-MOLOPT-SR-GTH-q4

       Number of orbital shell sets:                                           1
       Number of orbital shells:                                               5
       Number of primitive Cartesian functions:                                4
       Number of Cartesian basis functions:                                   14
       Number of spherical basis functions:                                   13
       Norm type:                                                              2

       Normalised Cartesian orbitals:

                        Set   Shell   Orbital            Exponent    Coefficient

                          1       1    2s                1.256768       0.294045
                                                         0.506394      -0.015884
                                                         0.238884      -0.207657
                                                         0.087337      -0.036225

                          1       2    3s                1.256768      -1.532347
                                                         0.506394       0.524539
                                                         0.238884       0.025013
                                                         0.087337      -0.052203

                          1       3    3px               1.256768       0.152274
                                                         0.506394      -0.154145
                                                         0.238884      -0.115581
                                                         0.087337      -0.028372
                          1       3    3py               1.256768       0.152274
                                                         0.506394      -0.154145
                                                         0.238884      -0.115581
                                                         0.087337      -0.028372
                          1       3    3pz               1.256768       0.152274
                                                         0.506394      -0.154145
                                                         0.238884      -0.115581
                                                         0.087337      -0.028372

                          1       4    4px               1.256768       0.313378
                                                         0.506394      -0.415360
                                                         0.238884      -0.022539
                                                         0.087337       0.078473
                          1       4    4py               1.256768       0.313378
                                                         0.506394      -0.415360
                                                         0.238884      -0.022539
                                                         0.087337       0.078473
                          1       4    4pz               1.256768       0.313378
                                                         0.506394      -0.415360
                                                         0.238884      -0.022539
                                                         0.087337       0.078473

                          1       5    4dx2              1.256768       0.325879
                                                         0.506394       0.163831
                                                         0.238884       0.044076
                                                         0.087337       0.010608
                          1       5    4dxy              1.256768       0.564439
                                                         0.506394       0.283764
                                                         0.238884       0.076342
                                                         0.087337       0.018373
                          1       5    4dxz              1.256768       0.564439
                                                         0.506394       0.283764
                                                         0.238884       0.076342
                                                         0.087337       0.018373
                          1       5    4dy2              1.256768       0.325879
                                                         0.506394       0.163831
                                                         0.238884       0.044076
                                                         0.087337       0.010608
                          1       5    4dyz              1.256768       0.564439
                                                         0.506394       0.283764
                                                         0.238884       0.076342
                                                         0.087337       0.018373
                          1       5    4dz2              1.256768       0.325879
                                                         0.506394       0.163831
                                                         0.238884       0.044076
                                                         0.087337       0.010608

     Auxiliary Fit Basis Set                                               cFIT3

       Number of orbital shell sets:                                           4
       Number of orbital shells:                                               4
       Number of primitive Cartesian functions:                                6
       Number of Cartesian basis functions:                                    8
       Number of spherical basis functions:                                    8
       Norm type:                                                              2

       Normalised Cartesian orbitals:

                        Set   Shell   Orbital            Exponent    Coefficient

                          1       1    1s                0.096480       0.123378

                          2       1    1s                0.246960      -0.309315
                                                         1.277560       0.429908

                          3       1    1px               0.089490       0.069768
                          3       1    1py               0.089490       0.069768
                          3       1    1pz               0.089490       0.069768

                          4       1    1px               0.295630       0.313983
                                                         2.202470      -0.124968
                          4       1    1py               0.295630       0.313983
                                                         2.202470      -0.124968
                          4       1    1pz               0.295630       0.313983
                                                         2.202470      -0.124968

       Atomic covalent radius [Angstrom]:                                  1.110

       Atomic van der Waals radius [Angstrom]:                             2.100

     GTH Potential information for                                       GTH-PBE

       Description:                       Goedecker-Teter-Hutter pseudopotential
                                           Goedecker et al., PRB 54, 1703 (1996)
                                          Hartwigsen et al., PRB 58, 3641 (1998)
                                                      Krack, TCA 114, 145 (2005)

       Gaussian exponent of the core charge distribution:               2.582645
       Electronic configuration (s p d ...):                               2   2

       Parameters of the local part of the GTH pseudopotential:

                          rloc        C1          C2          C3          C4
                        0.440000   -6.269288

       Parameters of the non-local part of the GTH pseudopotential:

                   l      r(l)      h(i,j,l)

                   0    0.435634    8.951742   -2.706271
                                   -2.706271    3.493781
                   1    0.497942    2.431277

  2. Atomic kind: H                                     Number of atoms:      64

     Orbital Basis Set                                     DZVP-MOLOPT-SR-GTH-q1

       Number of orbital shell sets:                                           1
       Number of orbital shells:                                               3
       Number of primitive Cartesian functions:                                5
       Number of Cartesian basis functions:                                    5
       Number of spherical basis functions:                                    5
       Norm type:                                                              2

       Normalised Cartesian orbitals:

                        Set   Shell   Orbital            Exponent    Coefficient

                          1       1    2s               10.068468      -0.133023
                                                         2.680223      -0.177618
                                                         0.791502      -0.258419
                                                         0.239116      -0.107525
                                                         0.082193      -0.014019

                          1       2    3s               10.068468       0.344673
                                                         2.680223       1.819821
                                                         0.791502      -0.999069
                                                         0.239116       0.017430
                                                         0.082193       0.082660

                          1       3    3px              10.068468       0.155326
                                                         2.680223       0.367157
                                                         0.791502       0.311480
                                                         0.239116       0.080105
                                                         0.082193       0.033440
                          1       3    3py              10.068468       0.155326
                                                         2.680223       0.367157
                                                         0.791502       0.311480
                                                         0.239116       0.080105
                                                         0.082193       0.033440
                          1       3    3pz              10.068468       0.155326
                                                         2.680223       0.367157
                                                         0.791502       0.311480
                                                         0.239116       0.080105
                                                         0.082193       0.033440

     Auxiliary Fit Basis Set                                               cFIT3

       Number of orbital shell sets:                                           2
       Number of orbital shells:                                               2
       Number of primitive Cartesian functions:                                3
       Number of Cartesian basis functions:                                    2
       Number of spherical basis functions:                                    2
       Norm type:                                                              2

       Normalised Cartesian orbitals:

                        Set   Shell   Orbital            Exponent    Coefficient

                          1       1    1s                0.113290       0.139173

                          2       1    1s                0.551250       0.404894
                                                         3.585030       0.334062

       Atomic covalent radius [Angstrom]:                                  0.320

       Atomic van der Waals radius [Angstrom]:                             1.090

     GTH Potential information for                                       GTH-PBE

       Description:                       Goedecker-Teter-Hutter pseudopotential
                                           Goedecker et al., PRB 54, 1703 (1996)
                                          Hartwigsen et al., PRB 58, 3641 (1998)
                                                      Krack, TCA 114, 145 (2005)

       Gaussian exponent of the core charge distribution:              12.500000
       Electronic configuration (s p d ...):                                   1

       Parameters of the local part of the GTH pseudopotential:

                          rloc        C1          C2          C3          C4
                        0.200000   -4.178900    0.724463

  3. Atomic kind: Ge                                    Number of atoms:      32

     Orbital Basis Set                                     DZVP-MOLOPT-SR-GTH-q4

       Number of orbital shell sets:                                           1
       Number of orbital shells:                                               5
       Number of primitive Cartesian functions:                                4
       Number of Cartesian basis functions:                                   14
       Number of spherical basis functions:                                   13
       Norm type:                                                              2

       Normalised Cartesian orbitals:

                        Set   Shell   Orbital            Exponent    Coefficient

                          1       1    2s                3.751626      -0.120003
                                                         1.419172       0.428185
                                                         0.322428      -0.228255
                                                         0.110740      -0.068975

                          1       2    3s                3.751626       0.273885
                                                         1.419172      -0.836040
                                                         0.322428       0.584240
                                                         0.110740      -0.261045

                          1       3    3px               3.751626       0.064521
                                                         1.419172       0.216179
                                                         0.322428      -0.253385
                                                         0.110740      -0.035002
                          1       3    3py               3.751626       0.064521
                                                         1.419172       0.216179
                                                         0.322428      -0.253385
                                                         0.110740      -0.035002
                          1       3    3pz               3.751626       0.064521
                                                         1.419172       0.216179
                                                         0.322428      -0.253385
                                                         0.110740      -0.035002

                          1       4    4px               3.751626      -0.201632
                                                         1.419172      -0.391570
                                                         0.322428       0.486065
                                                         0.110740      -0.127990
                          1       4    4py               3.751626      -0.201632
                                                         1.419172      -0.391570
                                                         0.322428       0.486065
                                                         0.110740      -0.127990
                          1       4    4pz               3.751626      -0.201632
                                                         1.419172      -0.391570
                                                         0.322428       0.486065
                                                         0.110740      -0.127990

                          1       5    4dx2              3.751626      -0.158822
                                                         1.419172       0.193543
                                                         0.322428       0.178643
                                                         0.110740       0.009408
                          1       5    4dxy              3.751626      -0.275088
                                                         1.419172       0.335227
                                                         0.322428       0.309418
                                                         0.110740       0.016296
                          1       5    4dxz              3.751626      -0.275088
                                                         1.419172       0.335227
                                                         0.322428       0.309418
                                                         0.110740       0.016296
                          1       5    4dy2              3.751626      -0.158822
                                                         1.419172       0.193543
                                                         0.322428       0.178643
                                                         0.110740       0.009408
                          1       5    4dyz              3.751626      -0.275088
                                                         1.419172       0.335227
                                                         0.322428       0.309418
                                                         0.110740       0.016296
                          1       5    4dz2              3.751626      -0.158822
                                                         1.419172       0.193543
                                                         0.322428       0.178643
                                                         0.110740       0.009408

     Auxiliary Fit Basis Set                                               cFIT6

       Number of orbital shell sets:                                           4
       Number of orbital shells:                                               4
       Number of primitive Cartesian functions:                                6
       Number of Cartesian basis functions:                                    8
       Number of spherical basis functions:                                    8
       Norm type:                                                              2

       Normalised Cartesian orbitals:

                        Set   Shell   Orbital            Exponent    Coefficient

                          1       1    1s                0.110750       0.136826

                          2       1    1s                0.308366      -0.415436
                                                         1.178430       0.610195

                          3       1    1px               0.110745       0.091064
                          3       1    1py               0.110745       0.091064
                          3       1    1pz               0.110745       0.091064

                          4       1    1px               0.339941       0.397306
                                                         1.591237      -0.423312
                          4       1    1py               0.339941       0.397306
                                                         1.591237      -0.423312
                          4       1    1pz               0.339941       0.397306
                                                         1.591237      -0.423312

       Atomic covalent radius [Angstrom]:                                  1.220

       Atomic van der Waals radius [Angstrom]:                             2.110

     GTH Potential information for                                       GTH-PBE

       Description:                       Goedecker-Teter-Hutter pseudopotential
                                           Goedecker et al., PRB 54, 1703 (1996)
                                          Hartwigsen et al., PRB 58, 3641 (1998)
                                                      Krack, TCA 114, 145 (2005)

       Gaussian exponent of the core charge distribution:               1.714678
       Electronic configuration (s p d ...):                               2   2

       Parameters of the local part of the GTH pseudopotential:

                          rloc        C1          C2          C3          C4
                        0.540000

       Parameters of the non-local part of the GTH pseudopotential:

                   l      r(l)      h(i,j,l)

                   0    0.421865    7.510241   -0.588108   -1.447976
                                   -0.588108   -1.595888    3.738657
                                   -1.447976    3.738657   -2.967467
                   1    0.567529    0.913860    0.546875
                                    0.546875   -0.647072
                   2    0.813914    0.197177


 MOLECULE KIND INFORMATION


 All atoms are their own molecule, skipping detailed information


 TOTAL NUMBERS AND MAXIMUM NUMBERS

  Total number of            - Atomic kinds:                                   3
                             - Atoms:                                        128
                             - Shell sets:                                   128
                             - Shells:                                       512
                             - Primitive Cartesian functions:                576
                             - Cartesian basis functions:                   1216
                             - Spherical basis functions:                   1152

  Maximum angular momentum of- Orbital basis functions:                        2
                             - Local part of the GTH pseudopotential:          2
                             - Non-local part of the GTH pseudopotential:      4

  AUX_FIT ADMM-Basis: 
  Total number of            - Shell sets:                                   384
                             - Shells:                                       384
                             - Primitive Cartesian functions:                576
                             - Cartesian basis functions:                    640
                             - Spherical basis functions:                    640
                               Maximum angular momentum                        1


 MODULE QUICKSTEP:  ATOMIC COORDINATES IN angstrom

 Atom  Kind  Element       X           Y           Z          Z(eff)       Mass
    1   1 Si  14       0.280704    2.361081    1.906485       4.0000     28.0855
    2   1 Si  14       2.211358    1.113575    2.346625       4.0000     28.0855
    3   1 Si  14       4.038883    2.228574    1.511468       4.0000     28.0855
    4   1 Si  14       6.007384    1.159312    2.331951       4.0000     28.0855
    5   1 Si  14      -1.886335    5.707720    1.881501       4.0000     28.0855
    6   1 Si  14       0.095804    4.548843    2.644740       4.0000     28.0855
    7   1 Si  14       1.968934    5.806084    1.817273       4.0000     28.0855
    8   1 Si  14       4.119286    4.575466    2.311902       4.0000     28.0855
    9   2 H    1       0.628296    2.270771    0.412611       1.0000      1.0079
   10   2 H    1       2.245250    0.843420    3.828267       1.0000      1.0079
   11   2 H    1       1.752757    3.654405    5.249605       1.0000      1.0079
   12   2 H    1       3.762568    2.225068    8.912490       1.0000      1.0079
   13   2 H    1       3.966228    2.284098    0.028140       1.0000      1.0079
   14   2 H    1       5.973217    1.108681    3.812731       1.0000      1.0079
   15   2 H    1      -1.774681    3.521699    5.041910       1.0000      1.0079
   16   2 H    1      -0.236496    2.903894    9.336060       1.0000      1.0079
   17   2 H    1      -1.559548    5.753662    0.336264       1.0000      1.0079
   18   2 H    1       0.031554    4.426740    4.151832       1.0000      1.0079
   19   2 H    1       3.905070   -0.000503    5.110187       1.0000      1.0079
   20   2 H    1       1.735189    5.952761    9.109687       1.0000      1.0079
   21   2 H    1       1.627064    5.790440    0.313670       1.0000      1.0079
   22   2 H    1       4.245260    4.275627    3.768719       1.0000      1.0079
   23   2 H    1       0.124709    0.248255    5.582525       1.0000      1.0079
   24   2 H    1      -2.237309    5.976931    8.798655       1.0000      1.0079
   25   3 Ge  32       1.888479    3.656615    6.845599       4.0000     72.6400
   26   3 Ge  32       3.879513    2.374500    7.418882       4.0000     72.6400
   27   3 Ge  32      -1.936630    3.413849    6.533054       4.0000     72.6400
   28   3 Ge  32      -0.082223    2.619672    7.790639       4.0000     72.6400
   29   3 Ge  32       3.943137    0.046890    6.656115       4.0000     72.6400
   30   3 Ge  32       1.765318    5.993992    7.566316       4.0000     72.6400
   31   3 Ge  32       0.054542    0.269618    7.133108       4.0000     72.6400
   32   3 Ge  32      -2.211434    5.781712    7.245296       4.0000     72.6400
   33   1 Si  14       8.012813    2.264248    1.784266       4.0000     28.0855
   34   1 Si  14      10.070227    1.078976    2.289743       4.0000     28.0855
   35   1 Si  14      12.163607    2.270527    1.787380       4.0000     28.0855
   36   1 Si  14      14.249257    1.209019    2.392332       4.0000     28.0855
   37   1 Si  14       6.188218    5.735374    1.696333       4.0000     28.0855
   38   1 Si  14       8.191417    4.611115    2.491732       4.0000     28.0855
   39   1 Si  14      10.024041    5.740077    1.624104       4.0000     28.0855
   40   1 Si  14      11.995812    4.540276    2.238296       4.0000     28.0855
   41   2 H    1       8.013523    2.464347    0.349585       1.0000      1.0079
   42   2 H    1      10.041878    0.939889    3.730518       1.0000      1.0079
   43   2 H    1       9.697497    3.326491    5.094874       1.0000      1.0079
   44   2 H    1      12.039844    2.083399    8.759476       1.0000      1.0079
   45   2 H    1      12.120378    2.312648    0.276789       1.0000      1.0079
   46   2 H    1      14.214949    0.875478    3.879427       1.0000      1.0079
   47   2 H    1       6.198862    3.546572    5.210339       1.0000      1.0079
   48   2 H    1       7.876403    2.200286    9.154427       1.0000      1.0079
   49   2 H    1       6.427838    5.565821    0.237084       1.0000      1.0079
   50   2 H    1       8.139975    4.718382    3.953001       1.0000      1.0079
   51   2 H    1      12.343619   -0.790299    5.391200       1.0000      1.0079
   52   2 H    1      10.128660    5.701475    8.830489       1.0000      1.0079
   53   2 H    1       9.940390    5.629919    0.139996       1.0000      1.0079
   54   2 H    1      12.029384    4.718144    3.712577       1.0000      1.0079
   55   2 H    1       7.936412    0.311994    5.195393       1.0000      1.0079
   56   2 H    1       5.983693    5.778774    9.041960       1.0000      1.0079
   57   3 Ge  32       9.990893    3.229035    6.605683       4.0000     72.6400
   58   3 Ge  32      12.110458    2.086635    7.215164       4.0000     72.6400
   59   3 Ge  32       6.059471    3.260577    6.742322       4.0000     72.6400
   60   3 Ge  32       8.056408    2.259790    7.610768       4.0000     72.6400
   61   3 Ge  32      12.178863   -0.346635    6.822470       4.0000     72.6400
   62   3 Ge  32       9.737656    5.624087    7.267249       4.0000     72.6400
   63   3 Ge  32       7.927880   -0.002700    6.688522       4.0000     72.6400
   64   3 Ge  32       5.870357    5.675323    7.488777       4.0000     72.6400
   65   1 Si  14      -3.831075    9.148272    1.473720       4.0000     28.0855
   66   1 Si  14      -1.803258    8.095308    2.285908       4.0000     28.0855
   67   1 Si  14       0.230211    9.191790    1.560987       4.0000     28.0855
   68   1 Si  14       2.242017    8.267786    2.104130       4.0000     28.0855
   69   1 Si  14      -5.844931   12.666734    1.439240       4.0000     28.0855
   70   1 Si  14      -3.935408   11.426604    2.096055       4.0000     28.0855
   71   1 Si  14      -1.830077   12.732373    1.524241       4.0000     28.0855
   72   1 Si  14       0.173044   11.575235    2.213640       4.0000     28.0855
   73   2 H    1      -4.056004    8.887937    0.066046       1.0000      1.0079
   74   2 H    1      -2.054307    8.044125    3.757854       1.0000      1.0079
   75   2 H    1      -1.705954   10.443482    5.171455       1.0000      1.0079
   76   2 H    1      -0.368470    9.031603    9.083627       1.0000      1.0079
   77   2 H    1      -0.072264    9.222715    0.046267       1.0000      1.0079
   78   2 H    1       2.095930    8.332249    3.533860       1.0000      1.0079
   79   2 H    1      -6.638245   10.641402    5.487559       1.0000      1.0079
   80   2 H    1      -3.911761    8.809137    8.769061       1.0000      1.0079
   81   2 H    1      -5.755599   12.870080   -0.054101       1.0000      1.0079
   82   2 H    1      -4.066409   11.251094    3.547893       1.0000      1.0079
   83   2 H    1      -0.148224    7.460580    5.017839       1.0000      1.0079
   84   2 H    1      -2.043196   12.714868    8.959746       1.0000      1.0079
   85   2 H    1      -1.958575   12.712023    0.086506       1.0000      1.0079
   86   2 H    1       0.108172   11.650893    3.686796       1.0000      1.0079
   87   2 H    1      -4.090744    6.613980    4.780994       1.0000      1.0079
   88   2 H    1      -5.459734   12.878119    9.181166       1.0000      1.0079
   89   3 Ge  32      -2.056989   10.317470    6.606359       4.0000     72.6400
   90   3 Ge  32      -0.248424    9.112853    7.581772       4.0000     72.6400
   91   3 Ge  32      -6.203947   10.228567    6.943590       4.0000     72.6400
   92   3 Ge  32      -4.076251    9.039870    7.206795       4.0000     72.6400
   93   3 Ge  32      -0.256962    7.005169    6.464377       4.0000     72.6400
   94   3 Ge  32      -2.045150   12.694880    7.366338       4.0000     72.6400
   95   3 Ge  32      -4.199320    6.805836    6.327382       4.0000     72.6400
   96   3 Ge  32      -5.928877   12.742033    7.699351       4.0000     72.6400
   97   1 Si  14       4.174926    9.250990    1.308902       4.0000     28.0855
   98   1 Si  14       6.056305    8.029641    2.180119       4.0000     28.0855
   99   1 Si  14       8.138451    9.064970    1.503725       4.0000     28.0855
  100   1 Si  14      10.152967    8.065488    2.241431       4.0000     28.0855
  101   1 Si  14       2.097109   12.650010    1.408899       4.0000     28.0855
  102   1 Si  14       4.191204   11.527999    1.986335       4.0000     28.0855
  103   1 Si  14       6.219191   12.650779    1.407294       4.0000     28.0855
  104   1 Si  14       8.115606   11.309385    1.975827       4.0000     28.0855
  105   2 H    1       4.046754    9.301549   -0.138240       1.0000      1.0079
  106   2 H    1       5.847813    8.274671    3.561233       1.0000      1.0079
  107   2 H    1       6.393233   10.329918    5.892521       1.0000      1.0079
  108   2 H    1       7.943771    9.004280    9.776561       1.0000      1.0079
  109   2 H    1       8.001543    8.891452    0.062038       1.0000      1.0079
  110   2 H    1      10.244001    8.131147    3.768940       1.0000      1.0079
  111   2 H    1       1.803716   10.198324    5.365583       1.0000      1.0079
  112   2 H    1       3.683537    8.990943    9.270940       1.0000      1.0079
  113   2 H    1       1.886697   12.786986   -0.086698       1.0000      1.0079
  114   2 H    1       4.400547   11.403724    3.456914       1.0000      1.0079
  115   2 H    1       8.159800    7.480235    5.419274       1.0000      1.0079
  116   2 H    1       6.275178   12.824587    9.503173       1.0000      1.0079
  117   2 H    1       6.426487   13.002961   -0.062051       1.0000      1.0079
  118   2 H    1       8.022979   11.279568    3.438072       1.0000      1.0079
  119   2 H    1       4.035328    6.810124    5.352704       1.0000      1.0079
  120   2 H    1       2.116966   12.835774    9.028458       1.0000      1.0079
  121   3 Ge  32       6.017447   10.342790    7.393221       4.0000     72.6400
  122   3 Ge  32       7.889962    8.997272    8.208119       4.0000     72.6400
  123   3 Ge  32       1.784790   10.169625    6.916545       4.0000     72.6400
  124   3 Ge  32       3.864773    9.103102    7.717510       4.0000     72.6400
  125   3 Ge  32       7.768770    6.932945    6.836199       4.0000     72.6400
  126   3 Ge  32       6.237184   12.651248    8.007309       4.0000     72.6400
  127   3 Ge  32       3.856687    6.869668    6.865061       4.0000     72.6400
  128   3 Ge  32       2.063690   12.594072    7.493828       4.0000     72.6400




 SCF PARAMETERS         Density guess:                                   RESTART
                        --------------------------------------------------------
                        max_scf:                                              50
                        max_scf_history:                                       0
                        max_diis:                                              4
                        --------------------------------------------------------
                        eps_scf:                                        1.00E-06
                        eps_scf_history:                                0.00E+00
                        eps_diis:                                       1.00E-01
                        eps_eigval:                                     1.00E-05
                        --------------------------------------------------------
                        level_shift [a.u.]:                                 0.00
                        added MOs                                        50    0
                        --------------------------------------------------------
                        Mixing method:                            BROYDEN_MIXING
                                                charge density mixing in g-space
                        --------------------------------------------------------
                        No outer SCF

 PW_GRID| Information for grid number                                          1
 PW_GRID| Grid distributed over                                    40 processors
 PW_GRID| Real space group dimensions                                    40    1
 PW_GRID| the grid is blocked:                                                NO
 PW_GRID| Cutoff [a.u.]                                                    175.0
 PW_GRID| spherical cutoff:                                                   NO
 PW_GRID|   Bounds   1            -90      89                Points:         180
 PW_GRID|   Bounds   2            -90      89                Points:         180
 PW_GRID|   Bounds   3           -180     179                Points:         360
 PW_GRID| Volume element (a.u.^3)  0.3784E-02     Volume (a.u.^3)     44134.1676
 PW_GRID| Grid span                                                    FULLSPACE
 PW_GRID|   Distribution                         Average         Max         Min
 PW_GRID|   G-Vectors                           291600.0      291600      291600
 PW_GRID|   G-Rays                                1620.0        1620        1620
 PW_GRID|   Real Space Points                   291600.0      324000      259200

 PW_GRID| Information for grid number                                          2
 PW_GRID| Number of the reference grid                                         1
 PW_GRID| Grid distributed over                                    40 processors
 PW_GRID| Real space group dimensions                                    40    1
 PW_GRID| the grid is blocked:                                                NO
 PW_GRID| Cutoff [a.u.]                                                     58.3
 PW_GRID| spherical cutoff:                                                   NO
 PW_GRID|   Bounds   1            -54      53                Points:         108
 PW_GRID|   Bounds   2            -54      53                Points:         108
 PW_GRID|   Bounds   3           -100      99                Points:         200
 PW_GRID| Volume element (a.u.^3)  0.1892E-01     Volume (a.u.^3)     44134.1676
 PW_GRID| Grid span                                                    FULLSPACE
 PW_GRID|   Distribution                         Average         Max         Min
 PW_GRID|   G-Vectors                            58320.0       59724       57024
 PW_GRID|   G-Rays                                 540.0         553         528
 PW_GRID|   Real Space Points                    58320.0       64800       43200

 PW_GRID| Information for grid number                                          3
 PW_GRID| Number of the reference grid                                         1
 PW_GRID| Grid distributed over                                    40 processors
 PW_GRID| Real space group dimensions                                    40    1
 PW_GRID| the grid is blocked:                                                NO
 PW_GRID| Cutoff [a.u.]                                                     19.4
 PW_GRID| spherical cutoff:                                                   NO
 PW_GRID|   Bounds   1            -30      29                Points:          60
 PW_GRID|   Bounds   2            -30      29                Points:          60
 PW_GRID|   Bounds   3            -60      59                Points:         120
 PW_GRID| Volume element (a.u.^3)  0.1022         Volume (a.u.^3)     44134.1676
 PW_GRID| Grid span                                                    FULLSPACE
 PW_GRID|   Distribution                         Average         Max         Min
 PW_GRID|   G-Vectors                            10800.0       11040       10380
 PW_GRID|   G-Rays                                 180.0         184         173
 PW_GRID|   Real Space Points                    10800.0       14400        7200

 PW_GRID| Information for grid number                                          4
 PW_GRID| Number of the reference grid                                         1
 PW_GRID| Grid distributed over                                    40 processors
 PW_GRID| Real space group dimensions                                     5    8
 PW_GRID| the grid is blocked:                                                NO
 PW_GRID| Cutoff [a.u.]                                                      6.5
 PW_GRID| spherical cutoff:                                                   NO
 PW_GRID|   Bounds   1            -18      17                Points:          36
 PW_GRID|   Bounds   2            -18      17                Points:          36
 PW_GRID|   Bounds   3            -36      35                Points:          72
 PW_GRID| Volume element (a.u.^3)  0.4730         Volume (a.u.^3)     44134.1676
 PW_GRID| Grid span                                                    FULLSPACE
 PW_GRID|   Distribution                         Average         Max         Min
 PW_GRID|   G-Vectors                             2332.8        2520        2160
 PW_GRID|   G-Rays                                  64.8          70          60
 PW_GRID|   Real Space Points                     2332.8        2880        2016

 POISSON| Solver                                                        PERIODIC
 POISSON| Periodicity                                                        XYZ

 RS_GRID| Information for grid number                                          1
 RS_GRID|   Bounds   1            -90      89                Points:         180
 RS_GRID|   Bounds   2            -90      89                Points:         180
 RS_GRID|   Bounds   3           -180     179                Points:         360
 RS_GRID| Real space distribution over                                  4 groups
 RS_GRID| Real space distribution along direction                              2
 RS_GRID| Border size                                                         38
 RS_GRID| Real space distribution over                                 10 groups
 RS_GRID| Real space distribution along direction                              3
 RS_GRID| Border size                                                         38
 RS_GRID|   Distribution                         Average         Max         Min
 RS_GRID|   Planes                                 121.0         121         121
 RS_GRID|   Distribution                         Average         Max         Min
 RS_GRID|   Planes                                 112.0         112         112

 RS_GRID| Information for grid number                                          2
 RS_GRID|   Bounds   1            -54      53                Points:         108
 RS_GRID|   Bounds   2            -54      53                Points:         108
 RS_GRID|   Bounds   3           -100      99                Points:         200
 RS_GRID| Real space distribution over                                  4 groups
 RS_GRID| Real space distribution along direction                              2
 RS_GRID| Border size                                                         38
 RS_GRID| Real space distribution over                                 10 groups
 RS_GRID| Real space distribution along direction                              3
 RS_GRID| Border size                                                         38
 RS_GRID|   Distribution                         Average         Max         Min
 RS_GRID|   Planes                                 103.0         103         103
 RS_GRID|   Distribution                         Average         Max         Min
 RS_GRID|   Planes                                  96.0          96          96

 RS_GRID| Information for grid number                                          3
 RS_GRID|   Bounds   1            -30      29                Points:          60
 RS_GRID|   Bounds   2            -30      29                Points:          60
 RS_GRID|   Bounds   3            -60      59                Points:         120
 RS_GRID| Real space fully replicated
 RS_GRID| Group size                                                           1

 RS_GRID| Information for grid number                                          4
 RS_GRID|   Bounds   1            -18      17                Points:          36
 RS_GRID|   Bounds   2            -18      17                Points:          36
 RS_GRID|   Bounds   3            -36      35                Points:          72
 RS_GRID| Real space fully replicated
 RS_GRID| Group size                                                           1

  HFX_INFO| Replica ID:                                                        1
  HFX_INFO| FRACTION:                                               0.2000000000
  HFX_INFO| Interaction Potential:                                     TRUNCATED
  HFX_INFO| Cutoff Radius [angstrom]:                               6.0000000000
  HFX_INFO| EPS_SCHWARZ:                                                 1.0E-08
  HFX_INFO| EPS_SCHWARZ_FORCES                                           1.0E-06
  HFX_INFO| EPS_STORAGE_SCALING:                                         1.0E-01
  HFX_INFO| NBINS:                                                            64
  HFX_INFO| BLOCK_SIZE:                                                        2
  HFX_INFO| NUMBER_OF_SHELLS:                                               AUTO
  HFX_INFO| Number of periodic shells considered:                             -1
  HFX_INFO| Number of periodic cells considered:                              27


 Number of electrons:                                                        320
 Number of occupied orbitals:                                                160
 Number of molecular orbitals:                                               210

 Number of orbital functions:                                               1152
 Number of independent orbital functions:                                   1152

 Extrapolation method: initial_guess

 *** WARNING in qs_initial_guess.F:309 :: User requested to restart the    ***
 *** wavefunction from the file named: Diag_libra-2000-RESTART.wfn. This   ***
 *** file does not exist. Please check the existence of the file or change ***
 *** properly the value of the keyword WFN_RESTART_FILE_NAME. Calculation  ***
 *** continues using ATOMIC GUESS.                                         ***


 Atomic guess: The first density matrix is obtained in terms of atomic orbitals
               and electronic configurations assigned to each atomic kind

 Guess for atomic kind: Si

 Electronic structure
    Total number of core electrons                                         10.00
    Total number of valence electrons                                       4.00
    Total number of electrons                                              14.00
    Multiplicity                                                   not specified
    S   [  2.00  2.00] 2.00
    P   [  6.00] 2.00


 *******************************************************************************
                  Iteration          Convergence                     Energy [au]
 *******************************************************************************
                          1        0.526541E-01                  -3.659692963728
                          2        0.125823E-01                  -3.661785675622
                          3        0.408986E-04                  -3.661911567360
                          4        0.675570E-07                  -3.661911568709

 Energy components [Hartree]           Total Energy ::           -3.661911568709
                                        Band Energy ::           -0.941881516273
                                     Kinetic Energy ::            1.409736465412
                                   Potential Energy ::           -5.071648034121
                                      Virial (-V/T) ::            3.597585902439
                                        Core Energy ::           -5.690149137281
                                          XC Energy ::           -0.992569238249
                                     Coulomb Energy ::            3.020806806821
                       Total Pseudopotential Energy ::           -7.143143335066
                       Local Pseudopotential Energy ::           -8.006124475851
                    Nonlocal Pseudopotential Energy ::            0.862981140786
                                        Confinement ::            0.432577323720

 Orbital energies  State     L     Occupation   Energy[a.u.]          Energy[eV]

                       1     0          2.000      -0.357276           -9.721984

                       1     1          2.000      -0.113664           -3.092965


 Total Electron Density at R=0:                                         0.000026

 Guess for atomic kind: H

 Electronic structure
    Total number of core electrons                                          0.00
    Total number of valence electrons                                       1.00
    Total number of electrons                                               1.00
    Multiplicity                                                   not specified
    S      1.00


 *******************************************************************************
                  Iteration          Convergence                     Energy [au]
 *******************************************************************************
                          1        0.250972E-02                  -0.375256815885
                          2        0.570752E-04                  -0.375258666164
                          3        0.832405E-09                  -0.375258667122

 Energy components [Hartree]           Total Energy ::           -0.375258667122
                                        Band Energy ::           -0.076317618391
                                     Kinetic Energy ::            0.771356566341
                                   Potential Energy ::           -1.146615233463
                                      Virial (-V/T) ::            1.486491829455
                                        Core Energy ::           -0.456090715790
                                          XC Energy ::           -0.314218627334
                                     Coulomb Energy ::            0.395050676003
                       Total Pseudopotential Energy ::           -1.238482237174
                       Local Pseudopotential Energy ::           -1.238482237174
                    Nonlocal Pseudopotential Energy ::            0.000000000000
                                        Confinement ::            0.110349550431

 Orbital energies  State     L     Occupation   Energy[a.u.]          Energy[eV]

                       1     0          1.000      -0.076318           -2.076708


 Total Electron Density at R=0:                                         0.425022

 Guess for atomic kind: Ge

 Electronic structure
    Total number of core electrons                                         28.00
    Total number of valence electrons                                       4.00
    Total number of electrons                                              32.00
    Multiplicity                                                   not specified
    S   [  2.00  2.00  2.00] 2.00
    P   [  6.00  6.00] 2.00
    D   [ 10.00]


 *******************************************************************************
                  Iteration          Convergence                     Energy [au]
 *******************************************************************************
                          1        0.142224                      -3.669910672039
                          2        0.333188E-01                  -3.687823698339
                          3        0.522642E-04                  -3.688875018994
                          4        0.333285E-05                  -3.688875020047
                          5        0.154106E-05                  -3.688875020053
                          6        0.996835E-06                  -3.688875020055

 Energy components [Hartree]           Total Energy ::           -3.688875020055
                                        Band Energy ::           -0.991816616960
                                     Kinetic Energy ::            1.446010121603
                                   Potential Energy ::           -5.134885141658
                                      Virial (-V/T) ::            3.551071368687
                                        Core Energy ::           -5.696847161393
                                          XC Energy ::           -0.988567154744
                                     Coulomb Energy ::            2.996539296082
                       Total Pseudopotential Energy ::           -7.185566698510
                       Local Pseudopotential Energy ::           -7.622158091196
                    Nonlocal Pseudopotential Energy ::            0.436591392686
                                        Confinement ::            0.427094155139

 Orbital energies  State     L     Occupation   Energy[a.u.]          Energy[eV]

                       1     0          2.000      -0.391724          -10.659354

                       1     1          2.000      -0.104184           -2.834997


 Total Electron Density at R=0:                                         0.000078
 Re-scaling the density matrix to get the right number of electrons
                  # Electrons              Trace(P)               Scaling factor
                          320               320.000                        1.000


 SCF WAVEFUNCTION OPTIMIZATION

  Step     Update method      Time    Convergence         Total energy    Change
  ------------------------------------------------------------------------------

  HFX_MEM_INFO| Est. max. program size before HFX [MiB]:                     519

 *** WARNING in hfx_energy_potential.F:591 :: The Kohn Sham matrix is not  ***
 *** 100% occupied. This may result in incorrect Hartree-Fock results. Try ***
 *** to decrease EPS_PGF_ORB and EPS_FILTER_MATRIX in the QS section. For  ***
 *** more information see FAQ: https://www.cp2k.org/faq:hfx_eps_warning    ***

  HFX_MEM_INFO| Number of cart. primitive ERI's calculated:          16102121357
  HFX_MEM_INFO| Number of sph. ERI's calculated:                      4150401198
  HFX_MEM_INFO| Number of sph. ERI's stored in-core:                  4150400829
  HFX_MEM_INFO| Number of sph. ERI's stored on disk:                           0
  HFX_MEM_INFO| Number of sph. ERI's calculated on the fly:                    0
  HFX_MEM_INFO| Total memory consumption ERI's RAM [MiB]:                   6518
  HFX_MEM_INFO| Whereof max-vals [MiB]:                                      277
  HFX_MEM_INFO| Total compression factor ERI's RAM:                         4.86
  HFX_MEM_INFO| Total memory consumption ERI's disk [MiB]:                     0
  HFX_MEM_INFO| Total compression factor ERI's disk:                        0.00
  HFX_MEM_INFO| Size of density/Fock matrix [MiB]:                             2
  HFX_MEM_INFO| Size of buffers [MiB]:                                         1
  HFX_MEM_INFO| Number of periodic image cells considered:                    27
  HFX_MEM_INFO| Est. max. program size after HFX  [MiB]:                     688

     1 NoMix/Diag. 0.30E+00   47.3     1.41062121      -266.0219958661 -2.66E+02
     2 Broy./Diag. 0.30E+00    6.5     1.00374248      -274.3230113683 -8.30E+00
     3 Broy./Diag. 0.30E+00    6.2     0.33345924      -281.8550501809 -7.53E+00
     4 Broy./Diag. 0.30E+00    6.2     0.09743541      -284.4547309299 -2.60E+00
     5 Broy./Diag. 0.30E+00    6.5     0.02928010      -286.4456252488 -1.99E+00
     6 Broy./Diag. 0.30E+00    6.3     0.02744408      -287.5005282442 -1.05E+00
     7 Broy./Diag. 0.30E+00    6.6     0.00702932      -287.8184867571 -3.18E-01
     8 Broy./Diag. 0.30E+00    6.2     0.01307293      -287.7188011196  9.97E-02
     9 Broy./Diag. 0.30E+00    6.5     0.00747170      -287.7589905433 -4.02E-02
    10 Broy./Diag. 0.30E+00    6.3     0.00626266      -287.8187008028 -5.97E-02
    11 Broy./Diag. 0.30E+00    6.3     0.00551806      -287.8494317181 -3.07E-02
    12 Broy./Diag. 0.30E+00    6.6     0.00404263      -287.9240914748 -7.47E-02
    13 Broy./Diag. 0.30E+00    6.3     0.00163325      -287.9648107042 -4.07E-02
    14 Broy./Diag. 0.30E+00    6.5     0.00244652      -287.9598466425  4.96E-03
    15 Broy./Diag. 0.30E+00    6.2     0.00094369      -287.9597534487  9.32E-05
    16 Broy./Diag. 0.30E+00    6.5     0.00153858      -287.9556435194  4.11E-03
    17 Broy./Diag. 0.30E+00    6.3     0.00064633      -287.9521458431  3.50E-03
    18 Broy./Diag. 0.30E+00    6.2     0.00071121      -287.9466222432  5.52E-03
    19 Broy./Diag. 0.30E+00    6.6     0.00049795      -287.9458914088  7.31E-04
    20 Broy./Diag. 0.30E+00    6.3     0.00029455      -287.9515143978 -5.62E-03
    21 Broy./Diag. 0.30E+00    6.5     0.00013519      -287.9540121403 -2.50E-03
    22 Broy./Diag. 0.30E+00    6.3     0.00006244      -287.9540766074 -6.45E-05
    23 Broy./Diag. 0.30E+00    6.5     0.00010357      -287.9539399550  1.37E-04
    24 Broy./Diag. 0.30E+00    6.3     0.00012734      -287.9540594115 -1.19E-04
    25 Broy./Diag. 0.30E+00    6.3     0.00006027      -287.9551251774 -1.07E-03
    26 Broy./Diag. 0.30E+00    6.5     0.00012939      -287.9556421990 -5.17E-04
    27 Broy./Diag. 0.30E+00    6.2     0.00004329      -287.9562929506 -6.51E-04
    28 Broy./Diag. 0.30E+00    6.6     0.00004142      -287.9565797583 -2.87E-04
    29 Broy./Diag. 0.30E+00    6.3     0.00003477      -287.9565691768  1.06E-05
    30 Broy./Diag. 0.30E+00    6.5     0.00001361      -287.9568718184 -3.03E-04
    31 Broy./Diag. 0.30E+00    6.3     0.00001595      -287.9569457333 -7.39E-05
    32 Broy./Diag. 0.30E+00    6.3     0.00000823      -287.9568702044  7.55E-05
    33 Broy./Diag. 0.30E+00    6.7     0.00000664      -287.9569405634 -7.04E-05
    34 Broy./Diag. 0.30E+00    6.3     0.00001273      -287.9569587116 -1.81E-05
    35 Broy./Diag. 0.30E+00    6.5     0.00000172      -287.9569737718 -1.51E-05
    36 Broy./Diag. 0.30E+00    6.3     0.00000412      -287.9569801986 -6.43E-06
    37 Broy./Diag. 0.30E+00    6.5     0.00000220      -287.9569820901 -1.89E-06
    38 Broy./Diag. 0.30E+00    6.3     0.00000098      -287.9569898686 -7.78E-06

  *** SCF run converged in    38 steps ***


  Electronic density on regular grids:       -319.9999999982        0.0000000018
  Core density on regular grids:              319.9999999279       -0.0000000721
  Total charge density on r-space grids:       -0.0000000703
  Total charge density g-space grids:          -0.0000000703

  Overlap energy of the core charge distribution:               0.00001917769529
  Self energy of the core charge distribution:               -685.99374549079380
  Core Hamiltonian energy:                                    164.11063176218778
  Hartree energy:                                             331.47354252304319
  Exchange-correlation energy:                                -79.91106851877385
  Hartree-Fock Exchange energy:                               -17.19114004308666
  Dispersion energy:                                           -0.44522927885201

  Total energy:                                              -287.95698986858008

   Calculate PDOS at iteration step                                  0

              ---- PDOS: start iteration on the KS states --- 

 *******************************************************************************
 **                                                                           **
 **         ######## #######   #######   ######## #######  ########           **
 **            ##    ##     ## ##     ## ##       ##   ##     ##              **
 **            ##    ##     ## ##     ## ######   #######     ##              **
 **            ##    ##     ## ##     ## ##       ##          ##              **
 **            ##    #######   #######   ##       ##          ##              **
 **                                                                           **
 *******************************************************************************
 
 -------------------------------------------------------------------------------
 -                            TDDFPT Initial Guess                             -
 -------------------------------------------------------------------------------
          State         Occupied      ->      Virtual          Excitation
          number         orbital              orbital          energy (eV)
 -------------------------------------------------------------------------------
             1              160                  161              1.81252
             2              159                  161              2.01128
             3              160                  162              2.02399
             4              160                  163              2.04398
             5              160                  164              2.10930
             6              160                  165              2.17742
             7              159                  162              2.22276
             8              159                  163              2.24274
             9              159                  164              2.30806
            10              159                  165              2.37619
            11              160                  166              2.38085
            12              160                  167              2.41690
            13              160                  168              2.52184
            14              160                  169              2.54478
            15              159                  166              2.57961
            16              160                  170              2.59033
            17              159                  167              2.61566
            18              160                  171              2.63002
            19              160                  172              2.65105
            20              160                  173              2.68604

      Number of active states:                                     158720
 -------------------------------------------------------------------------------
 
 -------------------------------------------------------------------------------
 -                      TDDFPT WAVEFUNCTION OPTIMIZATION                       -
 -------------------------------------------------------------------------------

          Step            Time         Convergence           Conv. states
 -------------------------------------------------------------------------------

    State    Exc. energy (eV)      Convergence (eV)
        1       1.5913207            -2.2120E-01
        2       1.7863085            -2.2497E-01
        3       1.7889504            -2.3504E-01
        4       1.9592709            -8.4706E-02
        5       1.9882573            -1.2104E-01
        6       2.0173801            -1.6004E-01
        7       2.0766114            -1.4614E-01
        8       2.1649583            -7.7781E-02
        9       2.2123152            -9.5749E-02
       10       2.2278298            -1.4836E-01
       11       2.2665286            -1.1432E-01
       12       2.2933543            -1.2355E-01
       13       2.3205522            -2.0129E-01
       14       2.3454366            -1.9935E-01
       15       2.3772986            -2.0231E-01
       16       2.4435354            -1.4680E-01
       17       2.4976372            -1.1803E-01
       18       2.5125320            -1.1749E-01
       19       2.5344760            -1.1658E-01
       20       2.5451098            -1.4093E-01

             1           123.8          8.6376E-03                      0

    State    Exc. energy (eV)      Convergence (eV)
        1       1.5562554            -3.5065E-02
        2       1.7491551            -3.7153E-02
        3       1.7802928            -8.6576E-03
        4       1.9527119            -6.5590E-03
        5       1.9798103            -8.4470E-03
        6       2.0081377            -9.2424E-03
        7       2.0633972            -1.3214E-02
        8       2.1561413            -8.8169E-03
        9       2.1784132            -3.3902E-02
       10       2.2124217            -1.5408E-02
       11       2.2349288            -3.1600E-02
       12       2.2715776            -2.1777E-02
       13       2.2942233            -2.6329E-02
       14       2.3229925            -2.2444E-02
       15       2.3536571            -2.3642E-02
       16       2.4327855            -1.0750E-02
       17       2.4598233            -3.7814E-02
       18       2.4974381            -1.5094E-02
       19       2.5040416            -3.0434E-02
       20       2.5339865            -1.1123E-02

             2           123.4          1.3896E-03                      0

    State    Exc. energy (eV)      Convergence (eV)
        1       1.5505339            -5.7215E-03
        2       1.7430895            -6.0657E-03
        3       1.7795137            -7.7910E-04
        4       1.9522209            -4.9102E-04
        5       1.9791095            -7.0081E-04
        6       2.0070911            -1.0466E-03
        7       2.0615934            -1.8038E-03
        8       2.1542151            -1.9262E-03
        9       2.1748612            -3.5520E-03
       10       2.2045961            -7.8256E-03
       11       2.2262119            -8.7168E-03
       12       2.2618389            -9.7387E-03
       13       2.2896323            -4.5910E-03
       14       2.3196108            -3.3817E-03
       15       2.3497218            -3.9352E-03
       16       2.3837855            -4.9000E-02
       17       2.4083710            -5.1452E-02
       18       2.4295540            -6.7884E-02
       19       2.5007663            -3.2753E-03
       20       2.5129154            -2.1071E-02

             3           123.6          2.4947E-03                      0

[...]
 flops     5 x    18 x    13             19169280       0.0%    100.0%      0.0%
 flops     8 x     2 x    18             42615936       0.0%    100.0%      0.0%
 flops     2 x     8 x    18             42856704       0.0%    100.0%      0.0%
 flops    13 x    18 x    13             49840128       0.0%    100.0%      0.0%
 flops     5 x     1 x     5             65849000       0.0%    100.0%      0.0%
 flops     5 x     5 x    18             72902700       0.0%    100.0%      0.0%
 flops     2 x     2 x    32            105062400       0.0%    100.0%      0.0%
 flops     5 x     1 x    13            171458560       0.0%    100.0%      0.0%
 flops    13 x     1 x     5            171458560       0.0%    100.0%      0.0%
 flops     8 x     8 x    18            182108160       0.0%    100.0%      0.0%
 flops     5 x    13 x    18            186900480       0.0%    100.0%      0.0%
 flops    13 x     5 x    18            186900480       0.0%    100.0%      0.0%
 flops   283 x   111 x    32            361877760       0.0%    100.0%      0.0%
 flops   286 x   111 x    32            365713920       0.0%    100.0%      0.0%
 flops   288 x   111 x    32            368271360       0.0%    100.0%      0.0%
 flops   295 x   111 x    32            377222400       0.0%    100.0%      0.0%
 flops    13 x     1 x    13            445792256       0.0%    100.0%      0.0%
 flops     8 x     2 x    32            454569984       0.0%    100.0%      0.0%
 flops     2 x     8 x    32            457138176       0.0%    100.0%      0.0%
 flops    13 x    13 x    18            493534080       0.0%    100.0%      0.0%
 flops     5 x     5 x    32            777628800       0.0%    100.0%      0.0%
 flops   283 x   113 x    32           1105194240       0.0%    100.0%      0.0%
 flops   286 x   113 x    32           1116910080       0.0%    100.0%      0.0%
 flops   288 x   113 x    32           1124720640       0.0%    100.0%      0.0%
 flops   283 x   116 x    32           1134535680       0.0%    100.0%      0.0%
 flops   286 x   116 x    32           1146562560       0.0%    100.0%      0.0%
 flops   295 x   113 x    32           1152057600       0.0%    100.0%      0.0%
 flops   283 x   118 x    32           1154096640       0.0%    100.0%      0.0%
 flops   288 x   116 x    32           1154580480       0.0%    100.0%      0.0%
 flops   286 x   118 x    32           1166330880       0.0%    100.0%      0.0%
 flops   288 x   118 x    32           1174487040       0.0%    100.0%      0.0%
 flops   295 x   116 x    32           1182643200       0.0%    100.0%      0.0%
 flops   295 x   118 x    32           1203033600       0.0%    100.0%      0.0%
 flops     8 x     8 x    32           1942487040       0.0%    100.0%      0.0%
 flops     5 x    13 x    32           1993605120       0.0%    100.0%      0.0%
 flops    13 x     5 x    32           1993605120       0.0%    100.0%      0.0%
 flops    13 x    13 x    32           5264363520       0.0%    100.0%      0.0%
 flops     2 x    32 x     2           6517555200       0.0%    100.0%      0.0%
 flops     5 x    32 x     5          28001776000       0.0%    100.0%      0.0%
 flops     2 x    32 x     8          28790784000       0.0%    100.0%      0.0%
 flops     8 x    32 x     2          28790784000       0.0%    100.0%      0.0%
 flops     5 x    32 x    13          72911421440       0.0%    100.0%      0.0%
 flops    13 x    32 x     5          72911421440       0.0%    100.0%      0.0%
 flops     8 x    32 x     8         120795955200       0.0%    100.0%      0.0%
 flops    13 x    32 x    13         189569695744       0.0%    100.0%      0.0%
 flops inhomo. stacks                           0       0.0%      0.0%      0.0%
 flops total                       578.733858E+09       0.0%    100.0%      0.0%
 flops max/rank                     24.575053E+09       0.0%    100.0%      0.0%
 matmuls inhomo. stacks                         0       0.0%      0.0%      0.0%
 matmuls total                          190901413       0.0%    100.0%      0.0%
 number of processed stacks               2192960       0.0%    100.0%      0.0%
 average stack size                                     0.0      87.1       0.0
 marketing flops                   589.963198E+09
 -------------------------------------------------------------------------------
 # multiplications                           1480
 max memory usage/rank             872.194048E+06
 # max total images/rank                        5
 # max 3D layers                                1
 # MPI messages exchanged                 1953600
 MPI messages size (bytes):
  total size                       126.650057E+09
  min size                           0.000000E+00
  max size                         177.000000E+03
  average size                      64.829062E+03
 MPI breakdown and total messages size (bytes):
             size <=      128              528246                        0
       128 < size <=     8192               19380                  9362304
      8192 < size <=    32768              386418               7377962112
     32768 < size <=   131072              599436              59251507848
    131072 < size <=  4194304              420120              60002798760
   4194304 < size <= 16777216                   0                        0
  16777216 < size                               0                        0
 -------------------------------------------------------------------------------

 *** WARNING in dbcsr_mm.F:294 :: Using a non-square number of MPI ranks ***
 *** might lead to poor performance. Used ranks: 40 Suggested: 36 81     ***

 -------------------------------------------------------------------------------
 -                                                                             -
 -                      DBCSR MESSAGE PASSING PERFORMANCE                      -
 -                                                                             -
 -------------------------------------------------------------------------------
 ROUTINE             CALLS      AVE VOLUME [Bytes]
 MP_Bcast               49                     12.
 MP_Allreduce         5096                      8.
 MP_Alltoall         46348                  33160.
 MP_ISend           112254                  31994.
 MP_IRecv           117948                  29964.
 -------------------------------------------------------------------------------

 -------------------------------------------------------------------------------
 -                                                                             -
 -                                GRID STATISTICS                              -
 -                                                                             -
 -------------------------------------------------------------------------------
 LP    KERNEL             BACKEND                              COUNT     PERCENT
 1     collocate general  REF                                8902750      16.32%
 3     collocate general  REF                                8778480      16.09%
 3     integrate general  REF                                8705326      15.96%
 0     collocate general  REF                                7318281      13.41%
 2     collocate general  REF                                7301893      13.38%
 2     integrate general  REF                                4599112       8.43%
 4     collocate general  REF                                4495680       8.24%
 4     integrate general  REF                                4458216       8.17%
 -------------------------------------------------------------------------------

 MEMORY| Estimated peak process memory [MiB]                                 832

 -------------------------------------------------------------------------------
 ----                             MULTIGRID INFO                            ----
 -------------------------------------------------------------------------------
 count for grid        1:         222279          cutoff [a.u.]          175.00
 count for grid        2:         200132          cutoff [a.u.]           58.33
 count for grid        3:         186221          cutoff [a.u.]           19.44
 count for grid        4:          73808          cutoff [a.u.]            6.48
 total gridlevel count  :         682440

 -------------------------------------------------------------------------------
 -                                                                             -
 -                         MESSAGE PASSING PERFORMANCE                         -
 -                                                                             -
 -------------------------------------------------------------------------------

 ROUTINE             CALLS      AVE VOLUME [Bytes]
 MP_Group                4
 MP_Bcast              638                1744311.
 MP_Allreduce        22023                    305.
 MP_Sync              1337
 MP_Alltoall          7156               10307277.
 MP_ISendRecv        74568                  63162.
 MP_Wait            149289
 MP_comm_split          70
 MP_ISend            67444                 299674.
 MP_IRecv            68264                 297176.
 MP_Recv               378                 149650.
 -------------------------------------------------------------------------------


 -------------------------------------------------------------------------------
 -                                                                             -
 -                           R E F E R E N C E S                               -
 -                                                                             -
 -------------------------------------------------------------------------------
 
 CP2K version 9.1, the CP2K developers group (2021).
 CP2K is freely available from https://www.cp2k.org/ .

 Kuehne,Thomas D.; Iannuzzi,Marcella; Del Ben,Mauro;
 Rybkin,Vladimir V.; Seewald,Patrick; Stein,Frederick; Laino,Teodoro;
 Khaliullin,Rustam Z.; Schuett,Ole; Schiffmann,Florian; Golze,Dorothea;
 Wilhelm,Jan; Chulkov,Sergey; Bani-Hashemian,Mohammad Hossein;
 Weber,Valery; Borstnik,Urban; Taillefumier,Mathieu;
 Jakobovits,Alice Shoshana; Lazzaro,Alfio; Pabst,Hans; Mueller,Tiziano;
 Schade,Robert; Guidon,Manuel; Andermatt,Samuel; Holmberg,Nico;
 Schenter,Gregory K.; Hehn,Anna; Bussy,Augustin; Belleflamme,Fabian;
 Tabacchi,Gloria; Gloess,Andreas; Lass,Michael; Bethune,Iain;
 Mundy,Christopher J.; Plessl,Christian; Watkins,Matt;
 VandeVondele,Joost; Krack,Matthias; Hutter,Juerg. 
 The Journal of Chemical Physics, 152 (19), (2020). 
 CP2K: An electronic structure and molecular dynamics software package -
 Quickstep: Efficient and accurate electronic structure calculations.
 https://doi.org/10.1063/5.0007045

 Goerigk, Lars; Hansen, Andreas; Bauer, Christoph; Ehrlich, Stephan;
 Najibi, Asim; Grimme, Stefan. , 19 (48), (2017). 
 A look at the density functional theory zoo with the advanced GMTKN55 database
 for general main group thermochemistry, kinetics and noncovalent interactions.
 https://doi.org/10.1039/C7CP04913G

 Schuett, Ole; Messmer, Peter; Hutter, Juerg; VandeVondele, Joost. 
 Electronic Structure Calculations on Graphics Processing Units, John
 Wiley & Sons, Ltd, 173-190 (2016). 
 GPU-Accelerated Sparse Matrix-Matrix Multiplication for
 Linear Scaling Density Functional Theory.
 https://doi.org/10.1002/9781118670712.ch8

 Heinecke, A; Henry, G; Hutchinson, M; Pabst, H. 
 Proceedings of Intl. Supercomputing Conference, 981-991 (2016). 
 LIBXSMM: Accelerating Small Matrix Multiplications
 by Runtime Code Generation.
 https://doi.org/10.1109/SC.2016.83

 Borstnik, U; VandeVondele, J; Weber, V; Hutter, J. 
 PARALLEL COMPUTING, 40 (5-6), 47-58 (2014). 
 Sparse matrix multiplication: The distributed block-compressed sparse
 row library.
 https://doi.org/10.1016/j.parco.2014.03.012

 Hutter, J; Iannuzzi, M; Schiffmann, F; VandeVondele, J. 
 WIREs Comput Mol Sci., 4 (1), 15-25 (2014). 
 CP2K: atomistic simulations of condensed matter systems.
 https://doi.org/10.1002/wcms.1159

 Grimme, S; Ehrlich, S; Goerigk, L. 
 JOURNAL OF COMPUTATIONAL CHEMISTRY, 32, 1456 (2011). 
 Effect of the damping function in dispersion corrected density functional theory.
 https://doi.org/10.1002/jcc.21759

 Guidon, M; Hutter, J; VandeVondele, J. 
 JOURNAL OF CHEMICAL THEORY AND COMPUTATION, 6 (8), 2348-2364 (2010). 
 Auxiliary Density Matrix Methods for Hartree-Fock Exchange Calculations.
 https://doi.org/10.1021/ct1002225

 Grimme, S; Antony, J; Ehrlich, S; Krieg, H. 
 JOURNAL OF CHEMICAL PHYSICS, 132 (15), 154104 (2010). 
 A consistent and accurate ab initio parametrization of density
 functional dispersion correction (DFT-D) for the 94 elements H-Pu.
 https://doi.org/10.1063/1.3382344

 Guidon, M; Hutter, J; VandeVondele, J. 
 JOURNAL OF CHEMICAL THEORY AND COMPUTATION, 5 (11), 3010-3021 (2009). 
 Robust Periodic Hartree-Fock Exchange for Large-Scale Simulations Using
 Gaussian Basis Sets.
 https://doi.org/10.1021/ct900494g

 Guidon, M; Schiffmann, F; Hutter, J; VandeVondele, J. 
 JOURNAL OF CHEMICAL PHYSICS, 128 (21), 214104 (2008). 
 Ab initio molecular dynamics using hybrid density functionals.
 https://doi.org/10.1063/1.2931945

 VandeVondele, J; Hutter, J. 
 JOURNAL OF CHEMICAL PHYSICS, 127 (11), 114105 (2007). 
 Gaussian basis sets for accurate calculations on molecular systems in
 gas and condensed phases.
 https://doi.org/10.1063/1.2770708

 Krack, M. 
 THEORETICAL CHEMISTRY ACCOUNTS, 114 (1-3), 145-152 (2005). 
 Pseudopotentials for H to Kr optimized for gradient-corrected
 exchange-correlation functionals.
 https://doi.org/10.1007/s00214-005-0655-y

 VandeVondele, J; Krack, M; Mohamed, F; Parrinello, M; Chassaing, T;
 Hutter, J. COMPUTER PHYSICS COMMUNICATIONS, 167 (2), 103-128 (2005). 
 QUICKSTEP: Fast and accurate density functional calculations using a
 mixed Gaussian and plane waves approach.
 https://doi.org/10.1016/j.cpc.2004.12.014

 Frigo, M; Johnson, SG. 
 PROCEEDINGS OF THE IEEE, 93 (2), 216-231 (2005). 
 The design and implementation of FFTW3.
 https://doi.org/10.1109/JPROC.2004.840301

 Iannuzzi, M; Chassaing, T; Wallman, T; Hutter, J. 
 CHIMIA, 59 (7-8), 499-503 (2005). 
 Ground and excited state density functional calculations with the
 Gaussian and augmented-plane-wave method.
 https://doi.org/10.2533/000942905777676164

 Martin,Richard L.. 
 The Journal of Chemical Physics, 118 (11), 4775-4777 (2003). 
 Natural transition orbitals.
 https://doi.org/10.1063/1.1558471

 Hartwigsen, C; Goedecker, S; Hutter, J. 
 PHYSICAL REVIEW B, 58 (7), 3641-3662 (1998). 
 Relativistic separable dual-space Gaussian pseudopotentials from H to Rn.
 https://doi.org/10.1103/PhysRevB.58.3641

 Lippert, G; Hutter, J; Parrinello, M. 
 MOLECULAR PHYSICS, 92 (3), 477-487 (1997). 
 A hybrid Gaussian and plane wave density functional scheme.
 https://doi.org/10.1080/002689797170220

 Goedecker, S; Teter, M; Hutter, J. 
 PHYSICAL REVIEW B, 54 (3), 1703-1710 (1996). 
 Separable dual-space Gaussian pseudopotentials.
 https://doi.org/10.1103/PhysRevB.54.1703

 BECKE, AD. PHYSICAL REVIEW A, 38 (6), 3098-3100 (1988). 
 DENSITY-FUNCTIONAL EXCHANGE-ENERGY APPROXIMATION WITH CORRECT
 ASYMPTOTIC-BEHAVIOR.
 https://doi.org/10.1103/PhysRevA.38.3098

 LEE, CT; YANG, WT; PARR, RG. 
 PHYSICAL REVIEW B, 37 (2), 785-789 (1988). 
 DEVELOPMENT OF THE COLLE-SALVETTI CORRELATION-ENERGY FORMULA INTO A
 FUNCTIONAL OF THE ELECTRON-DENSITY.
 https://doi.org/10.1103/PhysRevB.37.785

 VOSKO, SH; WILK, L; NUSAIR, M. 
 CANADIAN JOURNAL OF PHYSICS, 58 (8), 1200-1211 (1980). 
 ACCURATE SPIN-DEPENDENT ELECTRON LIQUID CORRELATION ENERGIES FOR LOCAL
 SPIN-DENSITY CALCULATIONS - A CRITICAL ANALYSIS.
 https://doi.org/10.1139/p80-159


 -------------------------------------------------------------------------------
 -                                                                             -
 -                                T I M I N G                                  -
 -                                                                             -
 -------------------------------------------------------------------------------
 SUBROUTINE                       CALLS  ASD         SELF TIME        TOTAL TIME
                                MAXIMUM       AVERAGE  MAXIMUM  AVERAGE  MAXIMUM
 CP2K                                 1  1.0    0.043    0.071 1556.649 1556.660
 qs_energies                          1  2.0    0.000    0.000 1556.039 1556.050
 qs_energies_properties               1  3.0    0.000    0.000 1267.937 1267.953
 tddfpt                               1  4.0    0.002    0.003 1267.937 1267.953
 tddfpt_davidson_solver               2  5.0    0.013    0.453 1263.047 1263.056
 tddfpt_compute_Aop_evects           10  6.0    0.000    0.000 1232.022 1232.034
 integrate_four_center              238  9.0    0.300    0.828 1108.012 1108.019
 integrate_four_center_main         238 10.0    0.075    0.081 1058.964 1078.883
 integrate_four_center_bin        15232 11.0 1058.889 1078.810 1058.889 1078.810
 tddfpt_apply_hfx                    10  7.0    0.004    0.004  901.568  901.575
 tddft_hfx_matrix                   200  8.0    0.004    0.005  896.534  896.540
 fhxc_kernel                         10  7.0    0.009    0.010  329.125  329.130
 scf_env_do_scf                       1  3.0    0.000    0.000  284.732  284.739
 scf_env_do_scf_inner_loop           38  4.0    0.002    0.007  284.732  284.739
 qs_ks_update_qs_env                 38  5.0    0.000    0.000  256.452  256.454
 rebuild_ks_matrix                   38  6.0    0.000    0.000  256.441  256.443
 qs_ks_build_kohn_sham_matrix        38  7.0    0.006    0.007  256.441  256.443
 hfx_ks_matrix                       38  8.0    0.001    0.001  211.496  211.497
 calculate_rho_elec                 479  8.7    0.955    1.067  172.595  172.613
 pw_transfer                       6169 10.2    0.516    0.647  151.754  152.613
 fft_wrap_pw1pw2                   5693 11.2    0.067    0.084  149.937  150.684
 fft_wrap_pw1pw2_180               3542 12.0   12.951   14.288  143.311  143.800
 fft3d_ps                          5693 13.2   62.151   66.977  110.279  112.090
 density_rs2pw                      479  9.7    0.029    0.033   92.945  100.999
 qs_rho_update_rho                  240  7.5    0.002    0.002   99.641   99.659
 integrate_v_rspace                 238  8.2    0.008    0.009   94.365   94.882
 tddfpt_apply_xc_analytic           400  8.0    1.563    1.751   89.536   90.085
 grid_collocate_task_list           479  9.7   76.752   81.522   76.752   81.522
 rs_pw_transfer                    2869 10.5    0.038    0.047   72.854   80.001
 mp_sync                           1337 10.6   42.630   67.579   42.630   67.579
 tddfpt_construct_aux_fit_densi     201  8.0    0.004    0.006   63.515   64.036
 xc_calc_2nd_deriv_analytical       400  9.0    4.511    5.059   59.235   59.404
 grid_integrate_task_list           238  9.2   52.733   55.329   52.733   55.329
 mp_alltoall_z22v                  5693 15.2   32.744   41.178   32.744   41.178
 potential_pw2rs                    238  9.2    0.038    0.042   38.413   38.924
 rs_pw_transfer_RS2PW_180           480 11.7   16.785   18.660   31.730   38.666
 mp_waitany                       67444 12.5   22.702   36.047   22.702   36.047
 -------------------------------------------------------------------------------

 The number of warnings for this run is : 3
 
 -------------------------------------------------------------------------------
  **** **** ******  **  PROGRAM ENDED AT                 2024-11-11 10:21:52.588
 ***** ** ***  *** **   PROGRAM RAN ON            bc12007.int.ets1.calculquebec.
 **    ****   ******    PROGRAM RAN BY                                  ekadashi
 ***** **    ** ** **   PROGRAM PROCESS ID                               2869216
  **** **  *******  **  PROGRAM STOPPED IN /scratch/ekadashi/Libra_CP2K/SiGe_Het
                                           ero/step2_B3LYP/SET2/job1
