# Projected DOS for atomic kind Si at iteration step i = 0, E(Fermi) =    -0.077624 a.u.
#     MO Eigenvalue [a.u.]      Occupation                 s                py                pz                px               d-2               d-1                d0               d+1               d+2
       1         -0.500199        2.000000        0.01271010        0.00021441        0.00162215        0.00012203        0.00001749        0.00003694        0.00014678        0.00002672        0.00001974
       2         -0.487679        2.000000        0.65127273        0.00438887        0.02481642        0.00256721        0.00072728        0.00047149        0.03184008        0.00031010        0.00139409
       3         -0.481914        2.000000        0.00467415        0.00262624        0.00092226        0.00053342        0.00003911        0.00016516        0.00012767        0.00005641        0.00021785
       4         -0.480035        2.000000        0.00884824        0.00147021        0.00130247        0.00383741        0.00031559        0.00011127        0.00016498        0.00022363        0.00010062
       5         -0.475860        2.000000        0.00997110        0.00196217        0.00087192        0.00377945        0.00027151        0.00010445        0.00015492        0.00014946        0.00022819
       6         -0.474358        2.000000        0.04520469        0.01612378        0.00109825        0.00616753        0.00070686        0.00067644        0.00036877        0.00026252        0.00187480
       7         -0.472408        2.000000        0.03588892        0.01087406        0.00112237        0.00808702        0.00080136        0.00041738        0.00024977        0.00037346        0.00100499
       8         -0.471272        2.000000        0.45408914        0.14371699        0.01188748        0.05888660        0.00717114        0.00693530        0.00805146        0.00276625        0.02000026
       9         -0.468547        2.000000        0.19889778        0.03576117        0.00400416        0.05755683        0.00668215        0.00140917        0.00295233        0.00300970        0.00406510
      10         -0.467309        2.000000        0.30191222        0.04577527        0.00745042        0.09269680        0.01117618        0.00195854        0.00597491        0.00490445        0.00587150
      11         -0.465162        2.000000        0.47634422        0.06420681        0.01012751        0.15411274        0.01985169        0.00349789        0.00763888        0.00655206        0.00819013
      12         -0.463178        2.000000        0.48030953        0.09771486        0.00885139        0.12403763        0.01528602        0.00473232        0.00951620        0.00548821        0.01171431
      13         -0.460576        2.000000        0.48917551        0.11239361        0.00907705        0.11893709        0.01411656        0.00519725        0.00698996        0.00570018        0.01492616
      14         -0.458071        2.000000        0.49525388        0.16460265        0.00819757        0.07228416        0.00950976        0.00784607        0.00747316        0.00333721        0.02092404
      15         -0.438913        2.000000        0.00240773        0.00185385        0.00060973        0.00083573        0.00022042        0.00029837        0.00016950        0.00017017        0.00017798
      16         -0.437655        2.000000        0.00326370        0.00078852        0.00044419        0.00263257        0.00022678        0.00017683        0.00014389        0.00026917        0.00032886
      17         -0.432938        2.000000        0.00503151        0.00177341        0.00035673        0.00289468        0.00045999        0.00014025        0.00013483        0.00029287        0.00040881
      18         -0.432260        2.000000        0.01616561        0.00681894        0.00064214        0.00779874        0.00129737        0.00055984        0.00018647        0.00062232        0.00134682
      19         -0.430855        2.000000        0.09743100        0.04076732        0.00061232        0.04049513        0.00810003        0.00274637        0.00040355        0.00258450        0.00856921
      20         -0.429225        2.000000        0.21954292        0.08134958        0.00175678        0.09758343        0.01923442        0.00457496        0.00038990        0.00754006        0.01869482
      21         -0.428191        2.000000        0.03225595        0.01201856        0.00062840        0.01404486        0.00272315        0.00097378        0.00018620        0.00117374        0.00291983
      22         -0.427583        2.000000        0.00985762        0.00437157        0.00049522        0.00418814        0.00093791        0.00048637        0.00016497        0.00055021        0.00086594
      23         -0.427035        2.000000        0.06499788        0.01783298        0.00075253        0.03530582        0.00572811        0.00152439        0.00030481        0.00234368        0.00572413
      24         -0.425268        2.000000        0.37399898        0.15531390        0.00135572        0.14691503        0.03694826        0.01153456        0.00073666        0.01011673        0.03311746
      25         -0.423514        2.000000        0.38155487        0.09424032        0.00166579        0.21169289        0.03961805        0.00626497        0.00073204        0.01641512        0.03403530
      26         -0.421647        2.000000        0.39641850        0.18382910        0.00138237        0.12475283        0.04253884        0.01432650        0.00049045        0.00934486        0.03354066
      27         -0.420808        2.000000        0.38228114        0.15190621        0.00112822        0.14380119        0.04887951        0.01066470        0.00093034        0.01201259        0.03182395
      28         -0.419601        2.000000        0.35908170        0.09872868        0.00138873        0.16073702        0.05481226        0.00776199        0.00138378        0.01140221        0.02646559
      29         -0.418989        2.000000        0.11219438        0.05411467        0.00088291        0.02488733        0.00824178        0.00467973        0.00047224        0.00250584        0.01843976
      30         -0.418289        2.000000        0.34484262        0.18089371        0.00157357        0.06503367        0.01223158        0.01446141        0.00104739        0.00406636        0.07204044
      31         -0.416538        2.000000        0.39825098        0.16599803        0.00123878        0.14113242        0.03195614        0.01251290        0.00102596        0.00856349        0.05163933
      32         -0.412597        2.000000        0.40052316        0.11253061        0.00240019        0.17048143        0.06228254        0.00813652        0.00146726        0.01339889        0.03563300
      33         -0.376660        2.000000        0.01097906        0.00586219        0.00391476        0.01066164        0.00033851        0.00073053        0.00101771        0.00074093        0.00033930
      34         -0.373567        2.000000        0.01405276        0.00775118        0.00388654        0.01443329        0.00030501        0.00068530        0.00120085        0.00115338        0.00022781
      35         -0.372107        2.000000        0.02413745        0.03379039        0.00761873        0.00154220        0.00024244        0.00300689        0.00184615        0.00032871        0.00085542
      36         -0.367226        2.000000        0.07897225        0.03186100        0.01451336        0.07432542        0.00316876        0.00400403        0.00422858        0.00762905        0.00148357
      37         -0.366069        2.000000        0.21055635        0.18666902        0.03246309        0.09429265        0.00459288        0.01852504        0.00983616        0.01088000        0.00720716
      38         -0.364787        2.000000        0.11299572        0.08231377        0.01948732        0.07200469        0.00265618        0.00831721        0.00546901        0.00813674        0.00319693
      39         -0.363950        2.000000        0.24542034        0.08879264        0.03842572        0.23285020        0.01044599        0.01045231        0.01165529        0.02547697        0.00539745
      40         -0.363096        2.000000        0.16132243        0.11344946        0.02760201        0.10057503        0.00438541        0.01307591        0.00754590        0.01050863        0.00614273
      41         -0.360849        2.000000        0.00766121        0.00430809        0.00264990        0.00316004        0.00043108        0.00103419        0.00065699        0.00060597        0.00099665
      42         -0.360425        2.000000        0.06838580        0.05734084        0.01530705        0.02307230        0.00274036        0.00795920        0.00421088        0.00275494        0.00489389
      43         -0.357849        2.000000        0.12587909        0.06436522        0.03373813        0.05175745        0.00797382        0.00926283        0.00712716        0.00764691        0.01558841
      44         -0.357280        2.000000        0.16220890        0.08721283        0.03670451        0.06308834        0.01129673        0.01195342        0.01039352        0.01012326        0.01803957
      45         -0.356994        2.000000        0.03823855        0.01686261        0.01134730        0.01766023        0.00350994        0.00384479        0.00285337        0.00292034        0.00400010
      46         -0.356541        2.000000        0.26129717        0.09740078        0.04853327        0.15309972        0.03126902        0.01459199        0.01742507        0.02024667        0.01803411
      47         -0.354761        2.000000        0.28420396        0.11600657        0.05514857        0.14274658        0.03378793        0.01729673        0.01934648        0.01878311        0.02202322
      48         -0.353649        2.000000        0.29377628        0.14241852        0.05760787        0.14615177        0.03318548        0.01739121        0.02042030        0.01971548        0.02515602
      49         -0.352488        2.000000        0.27692263        0.15298996        0.06550860        0.09616702        0.02000867        0.02227772        0.01615426        0.01405657        0.03383123
      50         -0.349695        2.000000        0.29558580        0.13545445        0.06964659        0.14165421        0.02996772        0.01580415        0.02109189        0.02067745        0.02869619
      51         -0.341039        2.000000        0.02709079        0.00638378        0.06847693        0.00736393        0.00148646        0.00243894        0.00666645        0.00261949        0.00212936
      52         -0.336706        2.000000        0.02844057        0.00888478        0.06130504        0.00368509        0.00101382        0.00501988        0.00545499        0.00134406        0.00239079
      53         -0.333905        2.000000        0.09434704        0.01040270        0.24430425        0.01253185        0.00442481        0.00495487        0.01144981        0.00720772        0.00277520
      54         -0.332255        2.000000        0.08440887        0.01517461        0.18743585        0.01539104        0.00427137        0.00783921        0.01057856        0.00820754        0.00378799
      55         -0.331262        2.000000        0.09320497        0.02165056        0.15223196        0.01329771        0.00431497        0.00995483        0.01278375        0.00706779        0.00666341
      56         -0.329621        2.000000        0.10611473        0.01699787        0.18352020        0.02553379        0.00726724        0.00689566        0.01336465        0.01397234        0.00365298
      57         -0.329250        2.000000        0.05215903        0.01134641        0.11663225        0.00782201        0.00208386        0.00548900        0.00743743        0.00351473        0.00314243
      58         -0.322403        2.000000        0.10605359        0.02827555        0.18205339        0.01596417        0.00419571        0.01003161        0.01238789        0.00491114        0.00722224
      59         -0.321172        2.000000        0.13448004        0.02343024        0.18241423        0.03405712        0.00983163        0.00920723        0.01365928        0.01060198        0.00620664
      60         -0.319944        2.000000        0.13406995        0.03976064        0.17947939        0.02248961        0.00537931        0.01270546        0.01433535        0.00728836        0.01003708
      61         -0.319458        2.000000        0.15848403        0.03617154        0.20102715        0.04011081        0.01002086        0.01071577        0.01944850        0.01403489        0.00921674
      62         -0.318513        2.000000        0.10516301        0.01292380        0.14864108        0.03052111        0.00864342        0.00428604        0.01144764        0.01159074        0.00324162
      63         -0.315487        2.000000        0.10242927        0.02790590        0.14889252        0.01867102        0.00448152        0.00992104        0.01010503        0.00624184        0.00661025
      64         -0.308884        2.000000        0.11888354        0.01950506        0.27068607        0.02329902        0.00501879        0.00528008        0.01343678        0.00695324        0.00501495
      65         -0.244277        2.000000        0.00301651        0.08600339        0.38431561        0.17855688        0.00131135        0.00372886        0.01984166        0.00482238        0.00154142
      66         -0.243250        2.000000        0.00430665        0.08630444        0.40106983        0.19030647        0.00248212        0.00467231        0.01926824        0.00663671        0.00305869
      67         -0.241296        2.000000        0.00660915        0.21123062        0.40596944        0.06952655        0.00742117        0.00432076        0.01638758        0.00446316        0.00379963
      68         -0.238445        2.000000        0.01306235        0.08334664        0.32036522        0.13648990        0.01139019        0.00704137        0.01665194        0.00624601        0.01423793
      69         -0.236516        2.000000        0.01071322        0.07763767        0.27005114        0.11418870        0.00874180        0.00678939        0.01110993        0.00337101        0.00981692
      70         -0.234913        2.000000        0.01261120        0.08981513        0.30834434        0.08577011        0.01273242        0.00572050        0.01232058        0.00487384        0.00819134
      71         -0.233428        2.000000        0.01759960        0.11980655        0.26594694        0.18077669        0.01245260        0.00922520        0.01399992        0.00292531        0.01723093
      72         -0.231653        2.000000        0.00656334        0.05328447        0.15173336        0.04354960        0.00374091        0.00546380        0.01129739        0.00233840        0.00752576
      73         -0.230680        2.000000        0.01113367        0.08462169        0.15347739        0.11636781        0.00896747        0.00670354        0.00845676        0.00436915        0.01047997
      74         -0.228737        2.000000        0.01583784        0.07330442        0.24933988        0.11610052        0.01628374        0.00461966        0.01587437        0.00548617        0.00807455
      75         -0.228075        2.000000        0.01083054        0.07732877        0.22778330        0.08019922        0.01210558        0.00460654        0.01580512        0.00439951        0.00604953
      76         -0.227598        2.000000        0.01545047        0.09487712        0.29933421        0.12579207        0.01158755        0.00571284        0.01794102        0.00490727        0.01726292
      77         -0.225809        2.000000        0.01186848        0.15534337        0.21135174        0.22018685        0.01198328        0.00940273        0.03568356        0.00571434        0.01311139
      78         -0.224864        2.000000        0.01480157        0.21083721        0.16921459        0.21294207        0.01447234        0.00628553        0.03976107        0.00894945        0.01379781
      79         -0.223472        2.000000        0.01467662        0.17315156        0.20989176        0.14829934        0.01508488        0.00533270        0.02936225        0.00779293        0.01080180
      80         -0.222632        2.000000        0.01525742        0.11544971        0.17610297        0.15557909        0.01408552        0.00897852        0.03421388        0.00181242        0.00871336
      81         -0.222269        2.000000        0.02628763        0.14552977        0.19433360        0.11253153        0.01501903        0.00383795        0.02759997        0.00378161        0.01675042
      82         -0.220982        2.000000        0.00541976        0.18805736        0.17566008        0.11969996        0.00747224        0.00405518        0.04045898        0.01352866        0.00716410
      83         -0.220057        2.000000        0.01255996        0.20937064        0.17108095        0.15485112        0.01321912        0.00275490        0.03440510        0.01243699        0.01261640
      84         -0.218723        2.000000        0.00964005        0.17603895        0.10567706        0.11425358        0.01150159        0.00590085        0.01897692        0.00589671        0.01038398
      85         -0.218349        2.000000        0.02740416        0.13947876        0.19887415        0.20147539        0.02525359        0.00520425        0.02963227        0.00619454        0.01386678
      86         -0.217902        2.000000        0.01526796        0.17342786        0.16314432        0.14906877        0.01606284        0.00451022        0.03689618        0.00924843        0.01172009
      87         -0.217353        2.000000        0.02709572        0.16497158        0.15270841        0.12985349        0.01589665        0.00730648        0.01747843        0.00244721        0.02261728
      88         -0.216530        2.000000        0.01396940        0.10116361        0.10253387        0.14135761        0.01284226        0.00552762        0.02052396        0.00300530        0.01262153
      89         -0.215739        2.000000        0.01296098        0.05855591        0.08599020        0.08039439        0.01228523        0.00315848        0.01438998        0.00190720        0.00625120
      90         -0.215100        2.000000        0.02556839        0.19298687        0.22058147        0.15945214        0.01287236        0.00645773        0.03565488        0.00779007        0.02552320
      91         -0.214018        2.000000        0.01977803        0.12798361        0.15877756        0.05846827        0.01097963        0.00402801        0.02431578        0.00179175        0.01921758
      92         -0.213116        2.000000        0.01486441        0.08194772        0.20649647        0.03332522        0.00569580        0.00283115        0.05034082        0.00468729        0.01358844
      93         -0.212682        2.000000        0.02450075        0.14747853        0.20328316        0.09198791        0.01632400        0.00346570        0.03008956        0.00619661        0.02152915
      94         -0.212161        2.000000        0.02028774        0.15293436        0.13996873        0.10937007        0.01526109        0.00477913        0.01856661        0.00475177        0.01752921
      95         -0.210668        2.000000        0.01016427        0.06424030        0.16606568        0.07249638        0.01025555        0.00634045        0.02802792        0.00678860        0.00958141
      96         -0.210159        2.000000        0.01404406        0.06597292        0.15361130        0.13449750        0.01597654        0.00533791        0.02947569        0.00212686        0.01270835
      97         -0.209510        2.000000        0.01175801        0.04978941        0.21092542        0.09153781        0.01041827        0.00879146        0.04397529        0.00668636        0.00982016
      98         -0.209391        2.000000        0.01724152        0.06197852        0.16599013        0.09828784        0.01709016        0.00376142        0.02661810        0.00639652        0.00941285
      99         -0.207137        2.000000        0.00869279        0.03872413        0.08882984        0.05758155        0.00695951        0.00213045        0.02372309        0.00259148        0.00723755
     100         -0.206816        2.000000        0.00501212        0.04947074        0.18952391        0.08191009        0.00889072        0.00723988        0.05826671        0.00601996        0.00666114
     101         -0.206547        2.000000        0.00797645        0.06047915        0.14585408        0.04050082        0.00610115        0.00497597        0.03887033        0.00309681        0.00788627
     102         -0.205882        2.000000        0.00971446        0.06242497        0.16979796        0.07420626        0.00634511        0.00485716        0.06263827        0.00395412        0.00901751
     103         -0.205036        2.000000        0.00871994        0.08820571        0.21324727        0.08650499        0.00721635        0.00733712        0.06275158        0.00364317        0.01366903
     104         -0.203394        2.000000        0.00651713        0.04118863        0.14231441        0.03265419        0.00681274        0.00571534        0.02524255        0.00543949        0.00540404
     105         -0.203122        2.000000        0.00412944        0.03815720        0.12777892        0.03492728        0.00367930        0.00333058        0.04478413        0.00460931        0.00394665
     106         -0.202428        2.000000        0.00834960        0.07481217        0.14198572        0.07289414        0.00634639        0.00669461        0.03294951        0.00433670        0.01420771
     107         -0.201572        2.000000        0.01251195        0.07510888        0.16545270        0.07292953        0.00771178        0.00840176        0.04076811        0.00765007        0.01257834
     108         -0.201190        2.000000        0.00965245        0.08169761        0.13951074        0.01333735        0.00356819        0.00333313        0.03132266        0.00383761        0.01295031
     109         -0.200400        2.000000        0.00824278        0.07238673        0.20909696        0.06562785        0.01317833        0.00781711        0.06100392        0.00987669        0.00635028
     110         -0.199721        2.000000        0.00636286        0.04926594        0.14152476        0.04122164        0.00788224        0.00579950        0.05093915        0.00604550        0.00454578
     111         -0.198597        2.000000        0.00966713        0.05609245        0.18560696        0.08447959        0.00987239        0.00966231        0.05152192        0.00439877        0.01052496
     112         -0.198091        2.000000        0.00423315        0.02745835        0.05665285        0.04613223        0.00420103        0.00316624        0.00887969        0.00215214        0.00517323
     113         -0.197420        2.000000        0.00574162        0.07209352        0.13155195        0.05537166        0.01249361        0.00623412        0.02370789        0.00729172        0.00617521
     114         -0.196697        2.000000        0.00720349        0.04660062        0.11581478        0.06215589        0.00850408        0.00488853        0.02474242        0.00539476        0.00677642
     115         -0.195965        2.000000        0.00792034        0.09461003        0.14918596        0.11649255        0.01026514        0.00758036        0.02910015        0.00839217        0.01679224
     116         -0.195523        2.000000        0.00594449        0.09750323        0.15072317        0.05449251        0.01442812        0.00573719        0.02774808        0.00937849        0.00780388
     117         -0.194511        2.000000        0.00658682        0.07980657        0.09207269        0.03523294        0.01084221        0.00325146        0.02016646        0.00461779        0.00569330
     118         -0.194227        2.000000        0.00364940        0.03379356        0.09415959        0.03606168        0.00485301        0.00237952        0.02828235        0.00473883        0.00421455
     119         -0.192586        2.000000        0.00454813        0.03564089        0.14346665        0.05158359        0.00725265        0.00583746        0.03693723        0.00343364        0.00544114
     120         -0.192057        2.000000        0.00129637        0.01424310        0.05186130        0.01261024        0.00213840        0.00187158        0.01403137        0.00186566        0.00203105
     121         -0.191533        2.000000        0.00200883        0.01560064        0.07872535        0.02533357        0.00258695        0.00326935        0.01776636        0.00163493        0.00349517
     122         -0.190663        2.000000        0.00631175        0.05656004        0.13283566        0.05129970        0.00976838        0.00581036        0.03044215        0.00606844        0.00607852
     123         -0.189589        2.000000        0.00464188        0.03168611        0.09649741        0.03733844        0.00474616        0.00532422        0.02758322        0.00269948        0.00462025
     124         -0.188778        2.000000        0.00574988        0.04238797        0.14697958        0.03568415        0.00723396        0.00569038        0.03940870        0.00526316        0.00632527
     125         -0.186537        2.000000        0.00283309        0.01847519        0.07530435        0.01513391        0.00390764        0.00260719        0.01764463        0.00229354        0.00244199
     126         -0.184000        2.000000        0.00075343        0.01387612        0.04328410        0.01306305        0.00175746        0.00244018        0.00776730        0.00166441        0.00223453
     127         -0.183395        2.000000        0.00468705        0.02207752        0.13492470        0.03620698        0.00596842        0.00444792        0.04389469        0.00663184        0.00276251
     128         -0.181433        2.000000        0.00278645        0.04058845        0.09578030        0.01795526        0.00608382        0.00231865        0.02644417        0.00497323        0.00232320
     129         -0.179677        2.000000        0.00332596        0.02013238        0.08816798        0.02159762        0.00494765        0.00262908        0.02281477        0.00318410        0.00282391
     130         -0.178847        2.000000        0.00321008        0.02899367        0.07527679        0.03348613        0.00305107        0.00344755        0.02243178        0.00392575        0.00303343
     131         -0.178180        2.000000        0.00206355        0.03879097        0.05393222        0.01862797        0.00295257        0.00316191        0.01330327        0.00262818        0.00311326
     132         -0.176966        2.000000        0.00080378        0.01491707        0.03681685        0.00876846        0.00153758        0.00179159        0.00786925        0.00140398        0.00186209
     133         -0.174830        2.000000        0.00115824        0.01756397        0.03065611        0.01955103        0.00155257        0.00190753        0.00760156        0.00130428        0.00131440
     134         -0.173856        2.000000        0.00035594        0.01039649        0.01443227        0.01667378        0.00123522        0.00108718        0.00219303        0.00134528        0.00070987
     135         -0.172197        2.000000        0.00106825        0.01402049        0.07134630        0.04230477        0.00337406        0.00255952        0.02099640        0.00364407        0.00161300
     136         -0.169239        2.000000        0.00279494        0.40233642        0.03389093        0.24244734        0.00577057        0.01471352        0.00942510        0.00908102        0.00948510
     137         -0.169131        2.000000        0.00104344        0.02052222        0.03692085        0.13025728        0.00406135        0.00108330        0.01172897        0.00636502        0.00162081
     138         -0.168422        2.000000        0.00319086        0.02315624        0.08087876        0.02707018        0.00423994        0.00296760        0.02900792        0.00233465        0.00223091
     139         -0.167545        2.000000        0.00151007        0.17658422        0.04617985        0.10311147        0.00335308        0.00608953        0.02010052        0.00553545        0.00507847
     140         -0.166210        2.000000        0.00170148        0.05908988        0.04136476        0.54086358        0.01310783        0.00486874        0.01138814        0.01894904        0.00363937
     141         -0.164017        2.000000        0.00220104        0.58330656        0.03736141        0.21169006        0.00738845        0.01965369        0.00886921        0.01231806        0.01185232
     142         -0.154262        2.000000        0.00229023        0.06090364        0.02695758        0.72268551        0.07504141        0.00390255        0.00651975        0.02482119        0.00848666
     143         -0.149496        2.000000        0.00109004        0.52869386        0.01662233        0.27995532        0.03017380        0.01815181        0.00297451        0.01093198        0.05819237
     144         -0.148424        2.000000        0.00118089        0.60593555        0.02021530        0.19220992        0.02292733        0.01649768        0.00586742        0.00806171        0.06700583