# Projected DOS for atomic kind Ge at iteration step i = 0, E(Fermi) =    -0.077624 a.u.
#     MO Eigenvalue [a.u.]      Occupation                 s                py                pz                px               d-2               d-1                d0               d+1               d+2
       1         -0.500199        2.000000        0.75418260        0.00464640        0.02054049        0.00514702        0.00069145        0.00046176        0.00795533        0.00061255        0.00077477
       2         -0.487679        2.000000        0.01010112        0.00015626        0.00284086        0.00033774        0.00003684        0.00001544        0.00058126        0.00004301        0.00002693
       3         -0.481914        2.000000        0.65448288        0.08226923        0.01325875        0.03453717        0.00360437        0.00421256        0.00276633        0.00212953        0.00850842
       4         -0.480035        2.000000        0.65468747        0.02902456        0.01362661        0.08399901        0.00762174        0.00175725        0.00319161        0.00446032        0.00260336
       5         -0.475860        2.000000        0.65010235        0.03719088        0.00903377        0.08070291        0.00765986        0.00201319        0.00364515        0.00469210        0.00403613
       6         -0.474358        2.000000        0.60627317        0.05481367        0.00859139        0.05299007        0.00515155        0.00265781        0.00293691        0.00313264        0.00565186
       7         -0.472408        2.000000        0.61546308        0.09305177        0.00847946        0.01717790        0.00251110        0.00483130        0.00320037        0.00110750        0.00930094
       8         -0.471272        2.000000        0.06386837        0.00816257        0.00237701        0.00268012        0.00028466        0.00052221        0.00053144        0.00018253        0.00103743
       9         -0.468547        2.000000        0.40043267        0.02634900        0.00491552        0.04864448        0.00457079        0.00140084        0.00193078        0.00287877        0.00267991
      10         -0.467309        2.000000        0.25733962        0.01499082        0.00539023        0.03377153        0.00329740        0.00086177        0.00157477        0.00174411        0.00139496
      11         -0.465162        2.000000        0.03061728        0.00154503        0.00192631        0.00341111        0.00044704        0.00013484        0.00039218        0.00035571        0.00024845
      12         -0.463178        2.000000        0.02563596        0.00236402        0.00221752        0.00205257        0.00025459        0.00016971        0.00043024        0.00017570        0.00033107
      13         -0.460576        2.000000        0.00851525        0.00062441        0.00124447        0.00068921        0.00008818        0.00010748        0.00021556        0.00005476        0.00013226
      14         -0.458071        2.000000        0.00322274        0.00041947        0.00081898        0.00017735        0.00003329        0.00004027        0.00013182        0.00002888        0.00007153
      15         -0.438913        2.000000        0.54802451        0.13565276        0.00246706        0.08014345        0.01306839        0.00906048        0.00081846        0.00610084        0.01648268
      16         -0.437655        2.000000        0.54629160        0.06829141        0.00209325        0.14823530        0.01839415        0.00591500        0.00075560        0.00888337        0.01387396
      17         -0.432938        2.000000        0.54786820        0.07462786        0.00140033        0.13091915        0.02205025        0.00487390        0.00042900        0.00998344        0.01304551
      18         -0.432260        2.000000        0.52318093        0.10733207        0.00273945        0.10409688        0.01445465        0.00776390        0.00049886        0.00779862        0.01344108
      19         -0.430855        2.000000        0.41827818        0.10729337        0.00092821        0.05633373        0.00897235        0.00650813        0.00031353        0.00378123        0.01554167
      20         -0.429225        2.000000        0.24995046        0.06758547        0.00129964        0.02433190        0.00391727        0.00423264        0.00029444        0.00214088        0.01332042
      21         -0.428191        2.000000        0.51063874        0.06993743        0.00161699        0.11833089        0.02267555        0.00539985        0.00069309        0.00746897        0.01427428
      22         -0.427583        2.000000        0.54973609        0.13163313        0.00171692        0.05834938        0.01022088        0.00931724        0.00035277        0.00409136        0.02978413
      23         -0.427035        2.000000        0.45314638        0.08039694        0.00172073        0.10741011        0.01318125        0.00445561        0.00025083        0.00630188        0.01307427
      24         -0.425268        2.000000        0.03335448        0.00402933        0.00021533        0.00938330        0.00107812        0.00028465        0.00004842        0.00073701        0.00076237
      25         -0.423514        2.000000        0.01888223        0.00283992        0.00020582        0.00443086        0.00068609        0.00017168        0.00003300        0.00035295        0.00055400
      26         -0.421647        2.000000        0.00739283        0.00177590        0.00033070        0.00106773        0.00021844        0.00012336        0.00003384        0.00009698        0.00028420
      27         -0.420808        2.000000        0.02053304        0.00238261        0.00066775        0.00526437        0.00087848        0.00018967        0.00006496        0.00034582        0.00056854
      28         -0.419601        2.000000        0.06249898        0.00725781        0.00064558        0.01544858        0.00306386        0.00048474        0.00008272        0.00097138        0.00126971
      29         -0.418989        2.000000        0.40506759        0.04788071        0.00262843        0.09258813        0.01969943        0.00323140        0.00038606        0.00678172        0.00891832
      30         -0.418289        2.000000        0.08031704        0.00879188        0.00068974        0.01870825        0.00362937        0.00072573        0.00008885        0.00139358        0.00179051
      31         -0.416538        2.000000        0.00363129        0.00091828        0.00047189        0.00077991        0.00013361        0.00010502        0.00005778        0.00008679        0.00012176
      32         -0.412597        2.000000        0.00201664        0.00049883        0.00048631        0.00068051        0.00007261        0.00004198        0.00005046        0.00004297        0.00005879
      33         -0.376660        2.000000        0.37758706        0.09244522        0.04599680        0.18018201        0.00788688        0.00823661        0.00568075        0.01716103        0.00737256
      34         -0.373567        2.000000        0.36836963        0.09555900        0.03443355        0.19404289        0.00913851        0.00746139        0.00829718        0.01524209        0.00381827
      35         -0.372107        2.000000        0.35257244        0.19681882        0.03771112        0.07386818        0.00467101        0.01584264        0.00686969        0.00556946        0.01001141
      36         -0.367226        2.000000        0.30156185        0.07009908        0.04726687        0.08496157        0.01375718        0.00850843        0.00551037        0.00969932        0.00800550
      37         -0.366069        2.000000        0.11545526        0.02630791        0.01601901        0.03547912        0.00519590        0.00319984        0.00209825        0.00386855        0.00299569
      38         -0.364787        2.000000        0.24358691        0.06761174        0.03357108        0.07829954        0.01138692        0.00601568        0.00568293        0.00867247        0.00720701
      39         -0.363950        2.000000        0.06448847        0.01275633        0.00994658        0.02535530        0.00314087        0.00171235        0.00124371        0.00267666        0.00139089
      40         -0.363096        2.000000        0.17692291        0.04407638        0.03011928        0.05801936        0.00661734        0.00516608        0.00321430        0.00617835        0.00605412
      41         -0.360849        2.000000        0.39756857        0.11975922        0.04443436        0.12065836        0.01280207        0.01108100        0.01167998        0.01072163        0.01978738
      42         -0.360425        2.000000        0.30139275        0.12055236        0.04588185        0.06812770        0.00696446        0.01283186        0.00772577        0.00767601        0.01223560
      43         -0.357849        2.000000        0.23852296        0.06606354        0.02361942        0.07665421        0.01132839        0.00518483        0.00773923        0.00720795        0.00702804
      44         -0.357280        2.000000        0.18977775        0.05213827        0.02239754        0.05784341        0.00848415        0.00483057        0.00601386        0.00600887        0.00622426
      45         -0.356994        2.000000        0.35511663        0.11585439        0.04516142        0.08985963        0.00942784        0.01120745        0.00980638        0.00832322        0.01796146
      46         -0.356541        2.000000        0.05718956        0.01540010        0.00770107        0.01890705        0.00261601        0.00148789        0.00126058        0.00203811        0.00142843
      47         -0.354761        2.000000        0.03060270        0.00890129        0.00405005        0.00906453        0.00109347        0.00077246        0.00072084        0.00090304        0.00146049
      48         -0.353649        2.000000        0.00813898        0.00224273        0.00164875        0.00313874        0.00029708        0.00031073        0.00019696        0.00018431        0.00031280
      49         -0.352488        2.000000        0.03509821        0.01205260        0.00717130        0.00838292        0.00101233        0.00098549        0.00075242        0.00089120        0.00145352
      50         -0.349695        2.000000        0.00464519        0.00142189        0.00283118        0.00123894        0.00013129        0.00013737        0.00018524        0.00015411        0.00014044
      51         -0.341039        2.000000        0.21877914        0.01947943        0.24464367        0.03212902        0.00559962        0.00554522        0.00849207        0.00741137        0.00315899
      52         -0.336706        2.000000        0.22689173        0.04225784        0.22001211        0.02344414        0.00381144        0.00871587        0.01145443        0.00426256        0.00752314
      53         -0.333905        2.000000        0.10473454        0.00993557        0.13133279        0.01402556        0.00259906        0.00198681        0.00700741        0.00371971        0.00152445
      54         -0.332255        2.000000        0.13803626        0.01757397        0.14036614        0.01887194        0.00386930        0.00353366        0.00759467        0.00473920        0.00233551
      55         -0.331262        2.000000        0.14723951        0.01768066        0.13275394        0.02603728        0.00370663        0.00425681        0.01020505        0.00455448        0.00332928
      56         -0.329621        2.000000        0.13087404        0.00958947        0.10878011        0.02695326        0.00467619        0.00216133        0.00781702        0.00530954        0.00181337
      57         -0.329250        2.000000        0.19204881        0.02916120        0.18850436        0.01956398        0.00357090        0.00556552        0.01180169        0.00451427        0.00521981
      58         -0.322403        2.000000        0.12261408        0.01878670        0.11122268        0.01741241        0.00272248        0.00379259        0.00725092        0.00293179        0.00277988
      59         -0.321172        2.000000        0.11186291        0.01521946        0.07465138        0.02241074        0.00328551        0.00268860        0.00630904        0.00325392        0.00277218
      60         -0.319944        2.000000        0.10611852        0.02326029        0.07892967        0.01172918        0.00160837        0.00352152        0.00623236        0.00193322        0.00373466
      61         -0.319458        2.000000        0.07829745        0.00791298        0.05437607        0.01746986        0.00279624        0.00150634        0.00427487        0.00256711        0.00130012
      62         -0.318513        2.000000        0.12728243        0.01146849        0.14218531        0.02223095        0.00357348        0.00168592        0.00610001        0.00378880        0.00134340
      63         -0.315487        2.000000        0.14366351        0.02630388        0.12496542        0.01154158        0.00215813        0.00522037        0.00755913        0.00309982        0.00416428
      64         -0.308884        2.000000        0.06953129        0.00636128        0.09555293        0.00549303        0.00108959        0.00097100        0.00391314        0.00103671        0.00081882
      65         -0.244277        2.000000        0.00272681        0.00834439        0.02067266        0.01134806        0.00026687        0.00048254        0.00150238        0.00033638        0.00058709
      66         -0.243250        2.000000        0.00081438        0.00138903        0.00593327        0.00294198        0.00013201        0.00011461        0.00041212        0.00029217        0.00014079
      67         -0.241296        2.000000        0.00128045        0.00231749        0.00755906        0.00210563        0.00017196        0.00043440        0.00084472        0.00014234        0.00020687
      68         -0.238445        2.000000        0.00640667        0.01965842        0.07080237        0.03332782        0.00133153        0.00064264        0.00434398        0.00065735        0.00208331
      69         -0.236516        2.000000        0.00802671        0.04029869        0.11457182        0.06431693        0.00236393        0.00116349        0.00525668        0.00062748        0.00230653
      70         -0.234913        2.000000        0.00574889        0.04854128        0.09709658        0.04497238        0.00171821        0.00083753        0.00279209        0.00062291        0.00146597
      71         -0.233428        2.000000        0.00414964        0.02147476        0.06989791        0.03643829        0.00058387        0.00037999        0.00247934        0.00034029        0.00138763
      72         -0.231653        2.000000        0.00572550        0.08145435        0.23464822        0.11214939        0.00143117        0.00065976        0.00695129        0.00125159        0.00189870
      73         -0.230680        2.000000        0.00395044        0.03969280        0.19778795        0.09211033        0.00201335        0.00075893        0.00786965        0.00143503        0.00077612
      74         -0.228737        2.000000        0.00465690        0.04885677        0.12694890        0.05745770        0.00178683        0.00088952        0.00436190        0.00087420        0.00188650
      75         -0.228075        2.000000        0.00389847        0.11858126        0.15376126        0.02719091        0.00183323        0.00105487        0.00431273        0.00034191        0.00082904
      76         -0.227598        2.000000        0.00438268        0.01749703        0.09392400        0.04067527        0.00141633        0.00074046        0.00352993        0.00064447        0.00151425
      77         -0.225809        2.000000        0.00432384        0.01953629        0.05548610        0.01734653        0.00143570        0.00029832        0.00383197        0.00033298        0.00090099
      78         -0.224864        2.000000        0.00378864        0.01247034        0.05516596        0.02494430        0.00098262        0.00039217        0.00273601        0.00029675        0.00097853
      79         -0.223472        2.000000        0.00355450        0.02771024        0.08864610        0.03331421        0.00091202        0.00073341        0.00399467        0.00085383        0.00210486
      80         -0.222632        2.000000        0.00604051        0.02921648        0.13368465        0.04097576        0.00196255        0.00113972        0.00955831        0.00075079        0.00174198
      81         -0.222269        2.000000        0.00818733        0.03782473        0.12132140        0.04861860        0.00374203        0.00118990        0.00769049        0.00094368        0.00261135
      82         -0.220982        2.000000        0.00309768        0.04933311        0.10880010        0.01272922        0.00134639        0.00078830        0.00753184        0.00083927        0.00174652
      83         -0.220057        2.000000        0.00678723        0.02779392        0.07914635        0.03616320        0.00256762        0.00044843        0.00465104        0.00056047        0.00177437
      84         -0.218723        2.000000        0.00578624        0.04916559        0.18043946        0.06270404        0.00396085        0.00140510        0.01047722        0.00110564        0.00224125
      85         -0.218349        2.000000        0.00496104        0.02388286        0.08737780        0.02904163        0.00188695        0.00055325        0.00351673        0.00073990        0.00216138
      86         -0.217902        2.000000        0.00964619        0.02665671        0.09471034        0.05324610        0.00298258        0.00110993        0.00608930        0.00085332        0.00253081
      87         -0.217353        2.000000        0.00757834        0.04117435        0.12497181        0.07031806        0.00226994        0.00134115        0.00541090        0.00106858        0.00476336
      88         -0.216530        2.000000        0.00743972        0.06894866        0.19475330        0.06968529        0.00331765        0.00186787        0.00765365        0.00100159        0.00555510
      89         -0.215739        2.000000        0.01053924        0.10865831        0.25305402        0.07873376        0.00593473        0.00251206        0.01012833        0.00165324        0.00471321
      90         -0.215100        2.000000        0.00326578        0.02044875        0.05630561        0.02020355        0.00140358        0.00073035        0.00390658        0.00040839        0.00113694
      91         -0.214018        2.000000        0.00815807        0.04400489        0.18485338        0.07774149        0.00356824        0.00149917        0.00900531        0.00181084        0.00389303
      92         -0.213116        2.000000        0.00878956        0.04029751        0.16313250        0.05237726        0.00371383        0.00235663        0.01304088        0.00179944        0.00289607
      93         -0.212682        2.000000        0.00785379        0.03511891        0.11017024        0.05659187        0.00313013        0.00144843        0.00686767        0.00115798        0.00336051
      94         -0.212161        2.000000        0.00944927        0.03795858        0.15132592        0.08499991        0.00505839        0.00122820        0.00814032        0.00135614        0.00353488
      95         -0.210668        2.000000        0.00679433        0.04954331        0.18160235        0.08573853        0.00277558        0.00290763        0.01426147        0.00207494        0.00476729
      96         -0.210159        2.000000        0.00857963        0.07004256        0.16832794        0.05462745        0.00423421        0.00181410        0.01110607        0.00122184        0.00388975
      97         -0.209510        2.000000        0.00484065        0.04559277        0.14629946        0.03615377        0.00269161        0.00343930        0.01447509        0.00179628        0.00178162
      98         -0.209391        2.000000        0.00756856        0.05522786        0.19226138        0.05392186        0.00436135        0.00221376        0.01149027        0.00110744        0.00330516
      99         -0.207137        2.000000        0.01069009        0.11229401        0.22336990        0.11681173        0.00624182        0.00290794        0.02156688        0.00392419        0.00395659
     100         -0.206816        2.000000        0.01467036        0.05520705        0.12252746        0.07556584        0.00567450        0.00175955        0.01321024        0.00158254        0.00424214
     101         -0.206547        2.000000        0.01542157        0.12869907        0.16314067        0.07691042        0.00517353        0.00278410        0.01415485        0.00330614        0.00654146
     102         -0.205882        2.000000        0.01359940        0.04376046        0.13599297        0.07870884        0.00321820        0.00214161        0.01848676        0.00169210        0.00391291
     103         -0.205036        2.000000        0.00642950        0.04823275        0.11148783        0.02677635        0.00214577        0.00158104        0.01141528        0.00170145        0.00190815
     104         -0.203394        2.000000        0.01595172        0.18396347        0.13011488        0.13183239        0.00985048        0.00352489        0.01039922        0.00318505        0.00698725
     105         -0.203122        2.000000        0.01428684        0.06875960        0.19959832        0.09718288        0.00547055        0.00352164        0.02940902        0.00278005        0.00369260
     106         -0.202428        2.000000        0.01442890        0.06982286        0.14343966        0.13630047        0.00648243        0.00294631        0.01095370        0.00265182        0.00565324
     107         -0.201572        2.000000        0.00527891        0.10933588        0.10638614        0.08362902        0.00292501        0.00317487        0.01570538        0.00303508        0.00284399
     108         -0.201190        2.000000        0.02967065        0.10740436        0.14415910        0.14510302        0.01157753        0.00248148        0.01605110        0.00237894        0.00849265
     109         -0.200400        2.000000        0.01793265        0.05320695        0.08689437        0.08048403        0.00769043        0.00171216        0.00994348        0.00175561        0.00417590
     110         -0.199721        2.000000        0.01342107        0.08918422        0.17097761        0.07872004        0.00560433        0.00212445        0.01829492        0.00318589        0.00734184
     111         -0.198597        2.000000        0.01168122        0.08353229        0.10897340        0.06753684        0.00345936        0.00385686        0.01406035        0.00178695        0.00568352
     112         -0.198091        2.000000        0.01682863        0.13454142        0.23289666        0.15424756        0.00788434        0.00442716        0.02544269        0.00656347        0.00616109
     113         -0.197420        2.000000        0.02304985        0.07684156        0.18579324        0.11289078        0.00955157        0.00312612        0.01385071        0.00240024        0.00655065
     114         -0.196697        2.000000        0.01958517        0.11648232        0.19583873        0.06292825        0.00677896        0.00430579        0.02642221        0.00311388        0.00755468
     115         -0.195965        2.000000        0.01400442        0.06477048        0.14552491        0.08108229        0.00645948        0.00224922        0.01116003        0.00263209        0.00325743
     116         -0.195523        2.000000        0.01782576        0.05915448        0.15697355        0.09115435        0.00731449        0.00222765        0.01900846        0.00278827        0.00459571
     117         -0.194511        2.000000        0.02302008        0.16060199        0.18941707        0.07379051        0.00503797        0.00222436        0.02779834        0.00240411        0.01113990
     118         -0.194227        2.000000        0.01760743        0.12185961        0.24090008        0.06109728        0.00426205        0.00434076        0.03021730        0.00401090        0.00873199
     119         -0.192586        2.000000        0.01515365        0.11680717        0.17475609        0.08111771        0.00386411        0.00328686        0.01904066        0.00208720        0.01126333
     120         -0.192057        2.000000        0.04282045        0.17424865        0.24781255        0.13664583        0.01523919        0.00300468        0.02248467        0.00268930        0.01658552
     121         -0.191533        2.000000        0.01046159        0.11612747        0.22013603        0.15792893        0.00671226        0.00788452        0.02488400        0.00497227        0.01119720
     122         -0.190663        2.000000        0.01634123        0.07251179        0.18295289        0.10789866        0.00990018        0.00268542        0.01925678        0.00279783        0.00623882
     123         -0.189589        2.000000        0.02290185        0.11592263        0.22274721        0.10114809        0.00700868        0.00390273        0.02130728        0.00493933        0.01074468
     124         -0.188778        2.000000        0.00600332        0.09194538        0.14701967        0.13087352        0.00610774        0.00489714        0.02062673        0.00441458        0.00600550
     125         -0.186537        2.000000        0.01834541        0.17711452        0.19185633        0.19440829        0.01019484        0.00506542        0.01675864        0.00875432        0.01147544
     126         -0.184000        2.000000        0.01615564        0.20792324        0.22465334        0.14660554        0.01056223        0.00437666        0.02991257        0.00957180        0.01219172
     127         -0.183395        2.000000        0.00789694        0.09722661        0.15328810        0.13138648        0.00621600        0.00389824        0.02367561        0.00398430        0.00801619
     128         -0.181433        2.000000        0.00832407        0.05076519        0.24481812        0.06584089        0.00730282        0.00331497        0.04454042        0.00599816        0.00327908
     129         -0.179677        2.000000        0.01748714        0.15912913        0.21340521        0.08894378        0.00983428        0.00414541        0.02942486        0.00712366        0.01135842
     130         -0.178847        2.000000        0.01881178        0.06894064        0.23701792        0.11847079        0.00942027        0.00491339        0.03649704        0.00544762        0.00949011
     131         -0.178180        2.000000        0.01113718        0.15883510        0.24442699        0.05795364        0.01147081        0.00609785        0.04406352        0.00654407        0.00548172
     132         -0.176966        2.000000        0.01884861        0.17077715        0.24868595        0.13014927        0.00815466        0.00709362        0.04024143        0.00920775        0.01389093
     133         -0.174830        2.000000        0.01203430        0.11905620        0.25284159        0.15462223        0.00916087        0.00876981        0.03956898        0.00587020        0.01211937
     134         -0.173856        2.000000        0.01801307        0.15575413        0.23316894        0.23661641        0.01252965        0.00996059        0.02425579        0.00947524        0.01874486
     135         -0.172197        2.000000        0.01362471        0.08803822        0.25853415        0.09300752        0.00915996        0.00473637        0.03444930        0.00718885        0.00905841
     136         -0.169239        2.000000        0.00376754        0.03444974        0.06329245        0.02370412        0.00318378        0.00336661        0.00967376        0.00169376        0.00135838
     137         -0.169131        2.000000        0.01765681        0.18741698        0.19114762        0.07241989        0.01680679        0.00637006        0.03127508        0.00639463        0.00475742
     138         -0.168422        2.000000        0.01562467        0.07183884        0.23561716        0.08937450        0.01094653        0.00601706        0.04241148        0.00572829        0.00541120
     139         -0.167545        2.000000        0.00955603        0.07541129        0.18856850        0.03164148        0.00660347        0.00496297        0.03234343        0.00497801        0.00392496
     140         -0.166210        2.000000        0.00594941        0.04835024        0.07495184        0.01719366        0.00452241        0.00134067        0.00956504        0.00229210        0.00289048
     141         -0.164017        2.000000        0.00067379        0.00486151        0.01371216        0.00296141        0.00037715        0.00025789        0.00213390        0.00026227        0.00048477
     142         -0.154262        2.000000        0.00009853        0.00110751        0.00464387        0.00117582        0.00008529        0.00008106        0.00072411        0.00008167        0.00010959
     143         -0.149496        2.000000        0.00007099        0.00041580        0.00127105        0.00062023        0.00002469        0.00003112        0.00016605        0.00004793        0.00002803
     144         -0.148424        2.000000        0.00015456        0.00062291        0.00203062        0.00066385        0.00006219        0.00007014        0.00030342        0.00003010        0.00006746