# Projected DOS for atomic kind Si at iteration step i = 0, E(Fermi) =    -0.078491 a.u.
#     MO Eigenvalue [a.u.]      Occupation                 s                py                pz                px               d-2               d-1                d0               d+1               d+2
       1         -0.500512        2.000000        0.00981244        0.00030656        0.00161074        0.00017294        0.00002132        0.00003902        0.00011858        0.00002609        0.00001732
       2         -0.484888        2.000000        0.65415263        0.00457501        0.02651299        0.00311927        0.00096547        0.00054145        0.03179114        0.00029479        0.00108216
       3         -0.482601        2.000000        0.00579736        0.00137238        0.00117982        0.00243202        0.00019279        0.00009530        0.00015482        0.00015603        0.00008210
       4         -0.479729        2.000000        0.00477464        0.00237121        0.00106494        0.00071690        0.00004987        0.00015893        0.00015298        0.00005733        0.00019130
       5         -0.475871        2.000000        0.00727152        0.00115082        0.00084881        0.00288304        0.00020376        0.00008378        0.00014920        0.00015419        0.00011730
       6         -0.474554        2.000000        0.01256985        0.00354953        0.00090331        0.00311550        0.00029613        0.00017440        0.00014818        0.00013964        0.00035834
       7         -0.472628        2.000000        0.00962107        0.00469935        0.00077891        0.00071775        0.00008137        0.00019225        0.00014484        0.00005112        0.00033449
       8         -0.468314        2.000000        0.41366334        0.11510560        0.01138269        0.06822524        0.00844375        0.00615529        0.00688881        0.00288426        0.01493110
       9         -0.467550        2.000000        0.09729795        0.02943211        0.00322338        0.01455489        0.00184953        0.00140147        0.00185826        0.00084019        0.00355729
      10         -0.462860        2.000000        0.49096024        0.11882310        0.01059876        0.10651303        0.01317666        0.00512692        0.00887380        0.00558911        0.01418573
      11         -0.461973        2.000000        0.48616558        0.05646232        0.01096801        0.16784267        0.01949463        0.00294142        0.00821215        0.00800381        0.00680422
      12         -0.461636        2.000000        0.50233008        0.08973328        0.01234556        0.13899600        0.01712917        0.00461691        0.00850856        0.00597851        0.01145213
      13         -0.458067        2.000000        0.49613335        0.10361644        0.00969628        0.12773944        0.01531041        0.00458133        0.00724000        0.00592706        0.01411245
      14         -0.455378        2.000000        0.49922737        0.16687411        0.00897559        0.07019794        0.00876554        0.00819013        0.00757727        0.00344830        0.01980418
      15         -0.439993        2.000000        0.00162740        0.00129802        0.00051105        0.00061316        0.00014279        0.00023284        0.00013280        0.00013960        0.00012139
      16         -0.436153        2.000000        0.00262444        0.00063901        0.00050537        0.00216146        0.00018607        0.00015269        0.00016736        0.00025270        0.00025503
      17         -0.434408        2.000000        0.00286510        0.00096630        0.00037357        0.00224349        0.00023797        0.00015325        0.00013425        0.00023814        0.00024151
      18         -0.432197        2.000000        0.00416004        0.00199752        0.00033910        0.00195136        0.00033511        0.00020070        0.00013364        0.00019583        0.00033964
      19         -0.430812        2.000000        0.01023580        0.00538151        0.00049642        0.00372976        0.00087661        0.00041058        0.00022167        0.00033780        0.00083604
      20         -0.430194        2.000000        0.00371075        0.00181075        0.00044171        0.00196170        0.00028253        0.00033232        0.00015431        0.00019004        0.00037816
      21         -0.428443        2.000000        0.00332090        0.00195594        0.00054894        0.00128002        0.00036256        0.00026297        0.00016623        0.00029148        0.00028375
      22         -0.425707        2.000000        0.25478524        0.09096960        0.00131552        0.11816876        0.02354481        0.00558340        0.00054571        0.00852964        0.02098561
      23         -0.424948        2.000000        0.15410819        0.05253463        0.00106886        0.07236400        0.01411292        0.00423291        0.00036561        0.00507461        0.01255407
      24         -0.422828        2.000000        0.37313172        0.16472050        0.00194460        0.14262681        0.02968945        0.01329124        0.00047037        0.01036558        0.03338927
      25         -0.419816        2.000000        0.37473902        0.17200951        0.00125912        0.12771401        0.03180258        0.01348039        0.00085647        0.00970982        0.03508280
      26         -0.419218        2.000000        0.20914947        0.09113988        0.00106894        0.07180178        0.01541725        0.00717153        0.00024773        0.00517984        0.02576167
      27         -0.418861        2.000000        0.21848848        0.09999984        0.00128736        0.07147077        0.01631552        0.00729386        0.00050334        0.00510055        0.02672167
      28         -0.417207        2.000000        0.39726882        0.14326519        0.00125418        0.15724309        0.04064355        0.01186546        0.00130587        0.00986384        0.04449653
      29         -0.416649        2.000000        0.40607533        0.10079736        0.00080217        0.19301755        0.06448283        0.00719168        0.00071772        0.01590317        0.03211719
      30         -0.414920        2.000000        0.40370440        0.15513029        0.00123727        0.15370674        0.04615327        0.01053240        0.00138368        0.01253675        0.03314301
      31         -0.414522        2.000000        0.40251429        0.14431254        0.00145979        0.14245463        0.03560208        0.01066115        0.00068045        0.01199653        0.05955010
      32         -0.412163        2.000000        0.40935486        0.13110497        0.00142400        0.14144470        0.05643303        0.01113667        0.00135515        0.01145221        0.05091916
      33         -0.377431        2.000000        0.00558590        0.00224352        0.00200018        0.00672297        0.00024938        0.00018502        0.00047663        0.00056686        0.00007170
      34         -0.374369        2.000000        0.00740291        0.00340704        0.00287371        0.00852055        0.00018882        0.00043283        0.00082917        0.00068333        0.00011827
      35         -0.372222        2.000000        0.02209543        0.02857784        0.00919097        0.00202062        0.00037418        0.00256738        0.00197953        0.00067583        0.00083142
      36         -0.367937        2.000000        0.01438143        0.00613728        0.00632758        0.01161512        0.00095728        0.00117866        0.00126172        0.00170023        0.00045734
      37         -0.364888        2.000000        0.26671661        0.16520617        0.04120572        0.18018153        0.00793204        0.01937512        0.01351828        0.01689878        0.00923123
      38         -0.364459        2.000000        0.00985751        0.00368456        0.00365727        0.00818300        0.00065016        0.00075358        0.00095042        0.00129031        0.00037118
      39         -0.362729        2.000000        0.09881431        0.06419450        0.01883365        0.05947927        0.00359267        0.00795951        0.00493118        0.00748436        0.00323631
      40         -0.361877        2.000000        0.18954370        0.10720371        0.03326805        0.13562780        0.00592626        0.01239912        0.00916196        0.01561204        0.00562775
      41         -0.361263        2.000000        0.15259041        0.08285593        0.02143495        0.12921334        0.00652483        0.00858557        0.00768753        0.01299791        0.00267184
      42         -0.360350        2.000000        0.12443279        0.12461749        0.01551948        0.04873571        0.00259143        0.01264217        0.00579088        0.00448034        0.00465561
      43         -0.359198        2.000000        0.01236649        0.00637175        0.00572431        0.00590998        0.00097833        0.00136550        0.00102162        0.00108313        0.00091190
      44         -0.357160        2.000000        0.02940832        0.01741294        0.00801385        0.01082620        0.00216849        0.00258622        0.00211005        0.00234594        0.00259662
      45         -0.355217        2.000000        0.27119765        0.10509678        0.05353643        0.14694006        0.03279385        0.01376672        0.01655588        0.02330146        0.01594232
      46         -0.352575        2.000000        0.29300253        0.11536096        0.06378711        0.15489169        0.03186881        0.01756080        0.01866441        0.02560731        0.02049362
      47         -0.351730        2.000000        0.30302632        0.17159895        0.06213056        0.10867527        0.01752269        0.02465265        0.01887398        0.01540635        0.03907930
      48         -0.351180        2.000000        0.28165780        0.15359543        0.07140112        0.11137650        0.01671820        0.02357711        0.01530110        0.01587085        0.03406546
      49         -0.349087        2.000000        0.29951952        0.12218474        0.06128719        0.16072491        0.03476807        0.01463263        0.02107251        0.02194372        0.02297147
      50         -0.347107        2.000000        0.29030697        0.13705943        0.06041398        0.13798522        0.02793389        0.01863982        0.02058394        0.01672886        0.02875991
      51         -0.342748        2.000000        0.06234213        0.02067393        0.06853764        0.02840765        0.00629253        0.00396130        0.00725238        0.00546470        0.00401266
      52         -0.337141        2.000000        0.02763477        0.00416443        0.07515920        0.00427474        0.00132670        0.00325003        0.00546138        0.00308444        0.00138610
      53         -0.334660        2.000000        0.04560982        0.01294807        0.12035911        0.00298781        0.00043107        0.00677618        0.00696847        0.00095301        0.00343448
      54         -0.332437        2.000000        0.03179179        0.00671769        0.05889078        0.00788179        0.00210723        0.00281354        0.00518537        0.00357094        0.00160793
      55         -0.331067        2.000000        0.06138246        0.00960742        0.11933190        0.01158283        0.00417210        0.00330534        0.00797607        0.00827622        0.00263452
      56         -0.328650        2.000000        0.06402212        0.01575601        0.13660303        0.00741892        0.00165283        0.00803023        0.00815834        0.00302857        0.00433598
      57         -0.326246        2.000000        0.06649170        0.00846432        0.13555286        0.01366601        0.00363494        0.00475524        0.00794839        0.00758647        0.00237427
      58         -0.322385        2.000000        0.15333800        0.03206271        0.21333148        0.03303976        0.00934741        0.01245826        0.01517935        0.01317757        0.00726871
      59         -0.320188        2.000000        0.14505116        0.03660081        0.18270839        0.02749861        0.00717004        0.01176055        0.01648874        0.00956082        0.00996986
      60         -0.318171        2.000000        0.14274882        0.03082664        0.18846904        0.03555081        0.00879909        0.00804676        0.01552916        0.01320555        0.00727648
      61         -0.316835        2.000000        0.15067154        0.02098360        0.23083987        0.03974411        0.01011594        0.00879779        0.01515231        0.01543813        0.00560355
      62         -0.314523        2.000000        0.17071584        0.03176596        0.26141107        0.03849582        0.00923082        0.01412691        0.01958519        0.01223852        0.00919018
      63         -0.314073        2.000000        0.17624519        0.04713207        0.24459110        0.02523750        0.00659540        0.01765759        0.01822651        0.01167586        0.01326548
      64         -0.311259        2.000000        0.09768920        0.00468171        0.29785234        0.00897818        0.00174393        0.00174347        0.00771554        0.00270759        0.00098125
      65         -0.244265        2.000000        0.00586522        0.10447843        0.36732586        0.19574224        0.00487916        0.00510859        0.02072826        0.00592195        0.00490763
      66         -0.241816        2.000000        0.00434665        0.09390337        0.37117608        0.16724223        0.00175742        0.00309390        0.01717550        0.00454044        0.00283257
      67         -0.238432        2.000000        0.00553793        0.19143006        0.36584162        0.06838406        0.00381898        0.00429905        0.01853035        0.00288077        0.00261898
      68         -0.236657        2.000000        0.01133116        0.07296171        0.26919504        0.11714359        0.00844661        0.00750832        0.00878369        0.00481017        0.01382168
      69         -0.235181        2.000000        0.00764241        0.05387279        0.17380496        0.04717841        0.00749148        0.00428840        0.00877953        0.00308960        0.00571142
      70         -0.233895        2.000000        0.01021969        0.06884095        0.31170616        0.14366090        0.01175760        0.00424193        0.01519870        0.00497456        0.00781986
      71         -0.232577        2.000000        0.00889064        0.05452809        0.16017048        0.08485140        0.00657650        0.00441942        0.01107831        0.00239401        0.00703330
      72         -0.230351        2.000000        0.01172543        0.08213273        0.26119917        0.13933239        0.00706357        0.00835564        0.01194697        0.00152397        0.01718821
      73         -0.229137        2.000000        0.00974944        0.07362313        0.22552292        0.09522227        0.00968686        0.00399321        0.01018688        0.00450542        0.00853937
      74         -0.228223        2.000000        0.01088107        0.10291420        0.25076348        0.09433894        0.00840209        0.00653170        0.00925822        0.00210189        0.01374962
      75         -0.227091        2.000000        0.01184535        0.09714833        0.24416146        0.18419058        0.01445394        0.00964100        0.02378760        0.00222174        0.00907838
      76         -0.226465        2.000000        0.01681617        0.07013610        0.30699108        0.18270221        0.01717023        0.00562833        0.01277931        0.00354313        0.01501127
      77         -0.224721        2.000000        0.01084461        0.12890835        0.23338738        0.13095978        0.01711152        0.00592903        0.02666933        0.00471234        0.00403280
      78         -0.221561        2.000000        0.00961878        0.09632338        0.16957736        0.05189397        0.00603120        0.00452716        0.02364081        0.00367411        0.00903708
      79         -0.221026        2.000000        0.02166732        0.22835387        0.13677320        0.22813110        0.01928814        0.01036509        0.01961251        0.00391758        0.01708386
      80         -0.220673        2.000000        0.01844202        0.18943338        0.21737861        0.18520978        0.01716289        0.00968146        0.04646374        0.00675922        0.01345559
      81         -0.220392        2.000000        0.01455724        0.10000698        0.15631139        0.13638733        0.01226526        0.00799496        0.03909989        0.00252600        0.00536460
      82         -0.219735        2.000000        0.01123898        0.17067788        0.16929080        0.10924573        0.01029148        0.00397504        0.02413762        0.00996486        0.01140257
      83         -0.218969        2.000000        0.00792264        0.16931877        0.22728297        0.09154428        0.00587610        0.00799778        0.03534023        0.01103583        0.01114781
      84         -0.218829        2.000000        0.01981027        0.11185690        0.12503298        0.12136273        0.01552643        0.00294931        0.02098831        0.00368249        0.01129050
      85         -0.217338        2.000000        0.02334730        0.09314615        0.14183663        0.17659925        0.01955251        0.00404015        0.02185974        0.00359602        0.01151946
      86         -0.217065        2.000000        0.01386331        0.03836764        0.09103560        0.08156445        0.01125331        0.00177708        0.01430998        0.00150409        0.00559890
      87         -0.216046        2.000000        0.01274345        0.07048197        0.15346523        0.08767484        0.01070782        0.00401818        0.04415973        0.00454964        0.00641068
      88         -0.215545        2.000000        0.02948113        0.27367374        0.15769304        0.15440652        0.01670892        0.00487792        0.01981026        0.00824664        0.02786607
      89         -0.215066        2.000000        0.00522803        0.20793437        0.18844357        0.11830373        0.00712048        0.00508621        0.03502880        0.01600428        0.00997586
      90         -0.213630        2.000000        0.01577159        0.12526818        0.15629307        0.11199749        0.00971789        0.00549288        0.03181966        0.00615230        0.01220805
      91         -0.213423        2.000000        0.01051847        0.08005208        0.14560763        0.06612477        0.01018705        0.00331253        0.02143928        0.00373831        0.00689547
      92         -0.212826        2.000000        0.02909992        0.16343168        0.20967970        0.09904884        0.00924392        0.00864434        0.03783158        0.00389277        0.02628071
      93         -0.211411        2.000000        0.00794789        0.07685089        0.20217684        0.07010922        0.00941340        0.00612898        0.03702362        0.00598555        0.00762386
      94         -0.210776        2.000000        0.01160485        0.09032497        0.12036522        0.11098527        0.01393004        0.00385336        0.02723745        0.00435274        0.01020797
      95         -0.210498        2.000000        0.01631105        0.07983199        0.17552470        0.07858188        0.01157383        0.00556448        0.04319062        0.00329268        0.01305340
      96         -0.210201        2.000000        0.02729159        0.19991099        0.15939014        0.17166406        0.02594829        0.00581246        0.01928151        0.00618260        0.02558564
      97         -0.209952        2.000000        0.01271529        0.09847296        0.21176019        0.08757774        0.00909894        0.00778016        0.03928828        0.01016807        0.01301405
      98         -0.209601        2.000000        0.02326610        0.14575628        0.18119529        0.11110599        0.01545977        0.00585273        0.03490653        0.00499207        0.01946042
      99         -0.208077        2.000000        0.00823747        0.04784236        0.16853304        0.06098438        0.00644382        0.00469170        0.04700499        0.00257412        0.00811167
     100         -0.207134        2.000000        0.00761853        0.05718933        0.10465396        0.06006173        0.00591441        0.00317282        0.01984314        0.00319948        0.00962483
     101         -0.206713        2.000000        0.01187490        0.05910442        0.15990368        0.07129433        0.01001392        0.00434533        0.03436820        0.00480227        0.01045010
     102         -0.205603        2.000000        0.01132098        0.05836764        0.10598819        0.05062179        0.00656995        0.00338102        0.02462985        0.00176367        0.01051398
     103         -0.204598        2.000000        0.00898643        0.04986856        0.21056513        0.05644914        0.00777462        0.00662713        0.06301479        0.00708213        0.00726370
     104         -0.203777        2.000000        0.00561937        0.03586107        0.17864740        0.08320155        0.00710980        0.00620479        0.04282016        0.00441822        0.00842345
     105         -0.203049        2.000000        0.00802475        0.05359670        0.16151720        0.04854697        0.00761427        0.00384145        0.05101579        0.00401099        0.00767137
     106         -0.202391        2.000000        0.01081572        0.06226696        0.12962172        0.06582196        0.00745580        0.00507428        0.03963716        0.00494561        0.01134609
     107         -0.200919        2.000000        0.00813509        0.09366683        0.18849587        0.10553206        0.01275579        0.01063779        0.03392942        0.00513407        0.01150617
     108         -0.200429        2.000000        0.01525507        0.10681945        0.15849402        0.08098131        0.01217344        0.00553916        0.03729619        0.00443298        0.01673293
     109         -0.199437        2.000000        0.00456582        0.05160442        0.15740301        0.05933600        0.00657035        0.00764694        0.05834983        0.00462178        0.00485857
     110         -0.198772        2.000000        0.00656313        0.05082607        0.12901023        0.07158636        0.00877909        0.00434866        0.03546281        0.00484818        0.00859539
     111         -0.198533        2.000000        0.00654169        0.06087112        0.16957298        0.05663467        0.00568929        0.00958872        0.02935777        0.00468835        0.01081580
     112         -0.197813        2.000000        0.00575154        0.03696254        0.10417004        0.05865738        0.00766240        0.00447611        0.02611731        0.00338137        0.00601206
     113         -0.197623        2.000000        0.00443661        0.06956706        0.13250865        0.04991069        0.00918346        0.00475321        0.03082437        0.00552762        0.00739176
     114         -0.196936        2.000000        0.00465649        0.02534338        0.07398420        0.03748684        0.00420327        0.00373844        0.01587864        0.00087384        0.00567862
     115         -0.196089        2.000000        0.01049887        0.10590774        0.19534177        0.09426064        0.01862230        0.00762583        0.03964430        0.00788437        0.01073461
     116         -0.194720        2.000000        0.00477006        0.02067173        0.09705269        0.03850359        0.00551839        0.00321811        0.01877195        0.00419445        0.00517025
     117         -0.193402        2.000000        0.00734353        0.05719682        0.18781847        0.07802885        0.00901049        0.00889019        0.06229668        0.00575790        0.00708125
     118         -0.193316        2.000000        0.00524090        0.07062127        0.09217290        0.03075060        0.00811037        0.00360262        0.02243240        0.00488850        0.00615245
     119         -0.192098        2.000000        0.00631693        0.04874711        0.17936045        0.05670604        0.00959141        0.00848591        0.04268884        0.00688139        0.00654274
     120         -0.191917        2.000000        0.00761262        0.09000062        0.13470930        0.02621926        0.01410024        0.00293914        0.03000766        0.00768612        0.00495357
     121         -0.190591        2.000000        0.00349132        0.03501629        0.08721081        0.05672332        0.00602543        0.00588978        0.02066928        0.00385360        0.00524539
     122         -0.189777        2.000000        0.00432976        0.07384793        0.16671744        0.03313369        0.01129556        0.00489851        0.03648982        0.00660967        0.00565088
     123         -0.189023        2.000000        0.00577322        0.04344641        0.15436562        0.03491627        0.00823806        0.00610581        0.04162786        0.00631986        0.00492474
     124         -0.187857        2.000000        0.00599728        0.04705158        0.14760202        0.03509062        0.00653764        0.00469143        0.03613812        0.00533761        0.00852003
     125         -0.187344        2.000000        0.00272305        0.01469833        0.06473176        0.01749614        0.00232022        0.00259800        0.02234547        0.00131507        0.00270755
     126         -0.184633        2.000000        0.00128203        0.03115288        0.05631685        0.01107220        0.00376676        0.00241654        0.01246991        0.00265093        0.00148432
     127         -0.183432        2.000000        0.00267515        0.01192710        0.07254243        0.02830831        0.00401309        0.00249803        0.01960014        0.00263316        0.00234553
     128         -0.182550        2.000000        0.00448994        0.04151627        0.12001513        0.02935982        0.00702171        0.00438739        0.03392090        0.00446196        0.00421418
     129         -0.180574        2.000000        0.00192193        0.01688385        0.06841418        0.02280468        0.00372558        0.00287443        0.01754299        0.00278537        0.00261943
     130         -0.177737        2.000000        0.00214851        0.00898231        0.07686227        0.02934361        0.00435603        0.00286082        0.02228601        0.00265490        0.00158626
     131         -0.177217        2.000000        0.00196138        0.02657017        0.04599273        0.01316755        0.00231495        0.00193360        0.01162044        0.00188648        0.00257081
     132         -0.175420        2.000000        0.00379748        0.02159498        0.10467487        0.01473639        0.00251734        0.00414026        0.03392687        0.00236373        0.00440212
     133         -0.172810        2.000000        0.00092096        0.01990807        0.03846290        0.01441617        0.00160348        0.00198987        0.00992527        0.00208690        0.00122441
     134         -0.172008        2.000000        0.00018500        0.00836270        0.01916489        0.00676769        0.00104038        0.00126892        0.00280794        0.00108426        0.00069160
     135         -0.170844        2.000000        0.00061777        0.01330813        0.03100939        0.00494999        0.00126818        0.00127045        0.00858216        0.00146511        0.00087533
     136         -0.169982        2.000000        0.00171634        0.03073248        0.03662835        0.04041492        0.00213318        0.00192064        0.01099029        0.00246407        0.00178304
     137         -0.168804        2.000000        0.00215725        0.02194503        0.05075675        0.08998127        0.00271199        0.00163759        0.02000110        0.00369902        0.00149100
     138         -0.167584        2.000000        0.00085268        0.04844332        0.03248741        0.03794706        0.00186982        0.00254580        0.00774001        0.00236537        0.00178534
     139         -0.166128        2.000000        0.00189995        0.53896066        0.02908702        0.24227832        0.00811263        0.01857643        0.00389813        0.01031294        0.01131818
     140         -0.165055        2.000000        0.00205178        0.03986153        0.03575730        0.66196604        0.01266439        0.00324412        0.00930452        0.02500518        0.00445054
     141         -0.162223        2.000000        0.00233395        0.62244143        0.02390108        0.21750763        0.00598156        0.02053053        0.00526066        0.01266996        0.01182575
     142         -0.152518        2.000000        0.00184322        0.06827157        0.01275216        0.74984496        0.07750008        0.00319890        0.00286234        0.02608672        0.00875969
     143         -0.147755        2.000000        0.00115287        0.52717367        0.01322008        0.29306044        0.03154174        0.01525987        0.00193622        0.01029667        0.05807110
     144         -0.145486        2.000000        0.00110829        0.50013913        0.02446173        0.29517223        0.02981153        0.01782468        0.00426589        0.01228674        0.05761564