# Projected DOS for atomic kind H at iteration step i = 0, E(Fermi) =    -0.079195 a.u.
#     MO Eigenvalue [a.u.]      Occupation                 s                py                pz                px
       1         -0.501040        2.000000        0.10765074        0.00153673        0.08242821        0.00110667
       2         -0.483981        2.000000        0.14754870        0.00088501        0.11297546        0.00040744
       3         -0.482794        2.000000        0.09905344        0.00552826        0.07581898        0.00731480
       4         -0.480367        2.000000        0.09932732        0.00791435        0.07427344        0.00471659
       5         -0.476156        2.000000        0.09960974        0.00357538        0.07463279        0.00955590
       6         -0.474826        2.000000        0.10250703        0.00659215        0.07386461        0.00560137
       7         -0.472773        2.000000        0.09887541        0.01221951        0.07160670        0.00331497
       8         -0.468060        2.000000        0.10655532        0.00380696        0.07024387        0.01124639
       9         -0.466609        2.000000        0.10730489        0.00811341        0.08487632        0.00449459
      10         -0.462415        2.000000        0.11017960        0.00748388        0.08305748        0.00551287
      11         -0.461125        2.000000        0.10990756        0.00401319        0.08282833        0.00857716
      12         -0.460334        2.000000        0.10860116        0.00547057        0.08123845        0.00763308
      13         -0.457396        2.000000        0.11220073        0.00651408        0.07979598        0.00685393
      14         -0.454887        2.000000        0.11337967        0.00982490        0.07747264        0.00428009
      15         -0.440262        2.000000        0.10334743        0.01029242        0.06201054        0.00567002
      16         -0.436293        2.000000        0.10658470        0.00574676        0.06022493        0.01300382
      17         -0.435359        2.000000        0.11024114        0.00698354        0.05807876        0.01239539
      18         -0.432392        2.000000        0.10617257        0.01035279        0.05876352        0.00707432
      19         -0.431070        2.000000        0.11090701        0.00895178        0.06008980        0.00813765
      20         -0.429810        2.000000        0.11313140        0.00885946        0.06039246        0.00577250
      21         -0.429254        2.000000        0.11526091        0.00576522        0.06211796        0.00802649
      22         -0.425206        2.000000        0.11034170        0.01128622        0.05778511        0.00609242
      23         -0.424198        2.000000        0.10517892        0.00619157        0.06172624        0.00722225
      24         -0.421661        2.000000        0.10602999        0.00930389        0.05658278        0.00717274
      25         -0.420230        2.000000        0.11695115        0.00446847        0.05813108        0.01192630
      26         -0.419010        2.000000        0.10862763        0.00757765        0.06021809        0.00525662
      27         -0.418274        2.000000        0.10950446        0.01034292        0.05486642        0.00443470
      28         -0.417290        2.000000        0.11391534        0.00831095        0.05574064        0.00580801
      29         -0.416206        2.000000        0.11056034        0.00440735        0.05559763        0.00843261
      30         -0.414179        2.000000        0.11174106        0.00482785        0.05558119        0.00857673
      31         -0.413052        2.000000        0.10860263        0.01033344        0.05465939        0.00385823
      32         -0.412094        2.000000        0.11763513        0.00465379        0.05530580        0.00865610
      33         -0.377616        2.000000        0.16124161        0.00391095        0.04348381        0.01655224
      34         -0.375039        2.000000        0.16510531        0.00572199        0.04360770        0.01157722
      35         -0.372868        2.000000        0.17489668        0.01753921        0.03796535        0.00354928
      36         -0.366757        2.000000        0.18878244        0.00715159        0.04255503        0.00550537
      37         -0.364560        2.000000        0.18309244        0.00848832        0.03780061        0.00903855
      38         -0.363909        2.000000        0.15466436        0.00633466        0.03855607        0.00796967
      39         -0.362399        2.000000        0.17898202        0.00687938        0.03784036        0.00736594
      40         -0.361604        2.000000        0.17087028        0.00737655        0.03873316        0.00622645
      41         -0.361087        2.000000        0.17956577        0.00494675        0.04246127        0.00652716
      42         -0.360851        2.000000        0.17023046        0.00518867        0.04258579        0.00623041
      43         -0.360023        2.000000        0.16372601        0.00601350        0.04704073        0.00524868
      44         -0.357966        2.000000        0.18410077        0.00738068        0.04103351        0.00413412
      45         -0.354578        2.000000        0.17730498        0.00485002        0.04225589        0.00619117
      46         -0.352462        2.000000        0.17786869        0.00619060        0.04107788        0.00623556
      47         -0.351536        2.000000        0.18346582        0.00569565        0.03769566        0.00641653
      48         -0.351019        2.000000        0.17800880        0.00581084        0.03988404        0.00469128
      49         -0.348666        2.000000        0.18207081        0.00486821        0.03736971        0.00529913
      50         -0.346529        2.000000        0.17968655        0.00531192        0.03802781        0.00388800
      51         -0.343592        2.000000        0.28701232        0.00439493        0.02798522        0.00382724
      52         -0.337088        2.000000        0.30707306        0.00363129        0.02363475        0.00360368
      53         -0.335536        2.000000        0.30127116        0.00343532        0.02442305        0.00327184
      54         -0.333391        2.000000        0.29928143        0.00462519        0.02761019        0.00350099
      55         -0.331151        2.000000        0.30362191        0.00195669        0.02041147        0.00467265
      56         -0.329276        2.000000        0.30407184        0.00565352        0.01885607        0.00146501
      57         -0.325191        2.000000        0.30273842        0.00213333        0.02087942        0.00453927
      58         -0.322125        2.000000        0.28491285        0.00230553        0.04393682        0.00344189
      59         -0.319873        2.000000        0.28340545        0.00251949        0.04659392        0.00200395
      60         -0.318682        2.000000        0.27977448        0.00215016        0.04628767        0.00307131
      61         -0.317063        2.000000        0.28369673        0.00235878        0.04850505        0.00282914
      62         -0.315821        2.000000        0.28402402        0.00269466        0.04386133        0.00160160
      63         -0.313641        2.000000        0.28114631        0.00211931        0.04422350        0.00181601
      64         -0.311350        2.000000        0.30443441        0.00114556        0.05257177        0.00129041
      65         -0.242956        2.000000        0.23007665        0.00980312        0.00195661        0.02625979
      66         -0.241762        2.000000        0.22549676        0.01146641        0.00164058        0.02959876
      67         -0.238649        2.000000        0.22157385        0.03560468        0.00156138        0.00523021
      68         -0.236419        2.000000        0.20328496        0.01709165        0.00500980        0.02824119
      69         -0.235396        2.000000        0.21220395        0.02726736        0.00387852        0.02115612
      70         -0.233466        2.000000        0.20824352        0.01244245        0.00323294        0.02515121
      71         -0.232573        2.000000        0.21202544        0.01311873        0.00301143        0.02610259
      72         -0.230282        2.000000        0.20053075        0.02214003        0.00375754        0.01547069
      73         -0.228817        2.000000        0.20371938        0.01497788        0.00418336        0.02407091
      74         -0.227816        2.000000        0.21008125        0.02094862        0.00483676        0.01615879
      75         -0.226444        2.000000        0.20438909        0.01502805        0.00343587        0.02128780
      76         -0.226120        2.000000        0.18235458        0.01730818        0.00329438        0.02483556
      77         -0.224592        2.000000        0.21113480        0.01228560        0.00443370        0.01694810
      78         -0.221553        2.000000        0.15135033        0.01980152        0.00324501        0.01895809
      79         -0.221225        2.000000        0.23153758        0.01741438        0.00538015        0.01309692
      80         -0.220490        2.000000        0.19635782        0.02318557        0.00386311        0.01068578
      81         -0.219869        2.000000        0.23591659        0.01789502        0.00616881        0.01396546
      82         -0.219130        2.000000        0.19726224        0.01738409        0.00463561        0.01575324
      83         -0.218911        2.000000        0.20411353        0.01479351        0.00603028        0.01540926
      84         -0.218316        2.000000        0.21712365        0.01599030        0.00527315        0.01562411
      85         -0.217669        2.000000        0.21086679        0.01532497        0.00498542        0.01572614
      86         -0.217223        2.000000        0.21027239        0.01549540        0.00772127        0.01558839
      87         -0.215953        2.000000        0.21319058        0.01569270        0.00711787        0.01906943
      88         -0.215669        2.000000        0.16929511        0.02071739        0.00505004        0.01620970
      89         -0.214879        2.000000        0.19928275        0.02100391        0.00569062        0.01796962
      90         -0.213964        2.000000        0.17182407        0.02017787        0.00684951        0.01244353
      91         -0.213210        2.000000        0.21881701        0.01477141        0.00833688        0.01280685
      92         -0.212803        2.000000        0.19242516        0.01536441        0.01122778        0.02027003
      93         -0.211348        2.000000        0.26587319        0.01078166        0.01020664        0.01349040
      94         -0.210996        2.000000        0.18250860        0.02167132        0.00668674        0.01450263
      95         -0.210630        2.000000        0.21187714        0.01476357        0.00578005        0.01697249
      96         -0.209925        2.000000        0.23172883        0.01458113        0.00841160        0.01794355
      97         -0.209620        2.000000        0.16790141        0.01687823        0.00481286        0.02099937
      98         -0.208750        2.000000        0.23064233        0.01924802        0.00863672        0.01098448
      99         -0.208224        2.000000        0.21803715        0.01364440        0.00897523        0.01318505
     100         -0.207133        2.000000        0.21335830        0.01448267        0.00481223        0.01537128
     101         -0.206725        2.000000        0.21722632        0.01438890        0.00694907        0.02101097
     102         -0.205383        2.000000        0.19873409        0.01480539        0.00627211        0.01755989
     103         -0.204810        2.000000        0.24285394        0.01434073        0.00810777        0.01408931
     104         -0.203496        2.000000        0.22637738        0.01036380        0.00576331        0.01734124
     105         -0.203235        2.000000        0.23705576        0.00922198        0.00860808        0.01492334
     106         -0.202410        2.000000        0.24222473        0.01276172        0.01335622        0.01475167
     107         -0.200863        2.000000        0.24061426        0.01466523        0.00621443        0.01245409
     108         -0.200399        2.000000        0.19366965        0.01377040        0.00711772        0.01973372
     109         -0.199784        2.000000        0.24333345        0.01262291        0.00967353        0.01630144
     110         -0.199084        2.000000        0.30404362        0.01007879        0.00858772        0.00946025
     111         -0.199018        2.000000        0.21824527        0.01517255        0.00494397        0.01804239
     112         -0.198257        2.000000        0.23053121        0.01473183        0.00662226        0.01389075
     113         -0.197233        2.000000        0.23262440        0.01568631        0.00841582        0.01211322
     114         -0.196847        2.000000        0.15961536        0.02407285        0.00566763        0.01067897
     115         -0.196129        2.000000        0.22996556        0.01358816        0.00759259        0.01469748
     116         -0.195255        2.000000        0.20826423        0.01378995        0.00781884        0.01625383
     117         -0.194074        2.000000        0.22251159        0.01777886        0.00740932        0.01388177
     118         -0.193409        2.000000        0.28272324        0.01094305        0.00886709        0.01112928
     119         -0.192490        2.000000        0.19078299        0.02380773        0.00640111        0.01027477
     120         -0.192198        2.000000        0.23115501        0.01198694        0.00772896        0.01797342
     121         -0.190613        2.000000        0.19704446        0.01808497        0.00611333        0.01583163
     122         -0.189912        2.000000        0.24783784        0.01225226        0.00656492        0.01311863
     123         -0.189708        2.000000        0.23653007        0.01366963        0.00505073        0.01441183
     124         -0.188393        2.000000        0.20333407        0.01429895        0.00651497        0.01452565
     125         -0.187290        2.000000        0.27953402        0.01223436        0.00696442        0.01551586
     126         -0.185041        2.000000        0.25460657        0.01308792        0.00751783        0.01393029
     127         -0.183614        2.000000        0.24378690        0.01036651        0.00789113        0.01777615
     128         -0.182709        2.000000        0.24980449        0.01412529        0.00802179        0.01039085
     129         -0.180905        2.000000        0.22923824        0.00998039        0.00643568        0.01823680
     130         -0.178187        2.000000        0.31088171        0.01225037        0.00941918        0.01149699
     131         -0.177078        2.000000        0.28716318        0.01494986        0.00853892        0.00934280
     132         -0.175518        2.000000        0.29198269        0.01226053        0.00904491        0.00847631
     133         -0.173218        2.000000        0.25957607        0.01677670        0.01197471        0.01044730
     134         -0.172528        2.000000        0.17745937        0.02237868        0.00839896        0.01573758
     135         -0.171932        2.000000        0.17903433        0.01516940        0.00819479        0.02155446
     136         -0.169437        2.000000        0.22933696        0.02377406        0.01124390        0.00977304
     137         -0.168500        2.000000        0.30981490        0.00599150        0.01804402        0.01406424
     138         -0.167496        2.000000        0.27270650        0.01266743        0.01332158        0.01261020
     139         -0.165305        2.000000        0.02483315        0.02487762        0.00176757        0.01581338
     140         -0.163959        2.000000        0.06367169        0.00699990        0.00327290        0.03199814
     141         -0.161466        2.000000        0.01733298        0.03312127        0.00151039        0.00991830
     142         -0.151245        2.000000        0.00364237        0.00355809        0.00077336        0.03523783
     143         -0.146951        2.000000        0.00355821        0.02666887        0.00103707        0.01410383
     144         -0.144567        2.000000        0.00700008        0.02380693        0.00180239        0.01779803
     145         -0.143841        2.000000        0.00339218        0.03227003        0.00087726        0.00993300
     146         -0.143286        2.000000        0.00812594        0.03154838        0.00140027        0.00897313
     147         -0.141249        2.000000        0.01031071        0.00301646        0.00220106        0.05008189
     148         -0.138954        2.000000        0.00270139        0.01106338        0.00097132        0.03135927
     149         -0.137581        2.000000        0.01059108        0.03872986        0.00340063        0.01339845
     150         -0.134564        2.000000        0.01706180        0.03890877        0.00518840        0.01275993
     151         -0.121988        2.000000        0.00294033        0.00934731        0.00170938        0.04177113
     152         -0.118074        2.000000        0.00533323        0.03017617        0.00246586        0.01957736
     153         -0.117582        2.000000        0.00166583        0.00158606        0.00059071        0.03557291
     154         -0.116757        2.000000        0.00501933        0.01834678        0.00198790        0.03187939
     155         -0.114448        2.000000        0.00339415        0.03654984        0.00167350        0.00753169
     156         -0.114324        2.000000        0.00487927        0.03630748        0.00152291        0.00818448
     157         -0.111353        2.000000        0.00335293        0.02087603        0.00226706        0.02921342
     158         -0.109255        2.000000        0.00526904        0.03840734        0.00213677        0.01430602
     159         -0.082590        2.000000        0.00341026        0.00119089        0.00116886        0.04700659
     160         -0.079195        2.000000        0.00463698        0.04595653        0.00092189        0.00160901
     161         -0.042862        0.000000        0.02747128        0.00274186        0.01559672        0.00196719
     162         -0.039896        0.000000        0.00714380        0.00846188        0.01635154        0.00702834
     163         -0.038319        0.000000        0.00538982        0.00934262        0.01473656        0.01020558
     164         -0.036149        0.000000        0.00987682        0.00481714        0.01412580        0.00737225
     165         -0.035355        0.000000        0.00739455        0.00601331        0.01140983        0.00807966
     166         -0.027515        0.000000        0.01150497        0.01983192        0.01452105        0.01161634
     167         -0.025184        0.000000        0.01385038        0.01713151        0.01226046        0.01428746
     168         -0.022860        0.000000        0.01580655        0.00971608        0.01569923        0.02454733
     169         -0.022656        0.000000        0.01399246        0.01987852        0.01878352        0.01868123
     170         -0.020823        0.000000        0.01420371        0.01341108        0.01342144        0.02103394
     171         -0.019314        0.000000        0.01441860        0.01208863        0.01705359        0.02201653
     172         -0.019144        0.000000        0.01577934        0.01834887        0.01737509        0.02454364
     173         -0.015918        0.000000        0.01327030        0.02324733        0.01734112        0.01240890
     174         -0.014401        0.000000        0.01810660        0.02569304        0.01829773        0.01230954
     175         -0.004779        0.000000        0.01091470        0.01883449        0.02279629        0.02694868
     176          0.000083        0.000000        0.01169298        0.02721792        0.02051274        0.02953496
     177          0.000445        0.000000        0.01090518        0.04028793        0.02382659        0.01177448
     178          0.004091        0.000000        0.01066978        0.02003589        0.02254431        0.02890499
     179          0.005187        0.000000        0.01232431        0.02441241        0.02360842        0.03398139
     180          0.008976        0.000000        0.01947039        0.03016266        0.03190843        0.01994529
     181          0.019637        0.000000        0.07225937        0.05268773        0.05855287        0.13480112
     182          0.020751        0.000000        0.04814365        0.07638782        0.04777377        0.06679377
     183          0.025611        0.000000        0.03280635        0.08496918        0.03147018        0.02093352
     184          0.027021        0.000000        0.02927723        0.02841831        0.02489141        0.07558574
     185          0.028293        0.000000        0.06268083        0.09236113        0.05072312        0.07278753
     186          0.032681        0.000000        0.07682776        0.07471774        0.05831519        0.08579040
     187          0.038148        0.000000        0.07648452        0.07575037        0.06387451        0.08508450
     188          0.041025        0.000000        0.07171511        0.06420848        0.05396168        0.08699224
     189          0.041946        0.000000        0.07450853        0.09793617        0.04924779        0.06543605
     190          0.044153        0.000000        0.06905113        0.06652064        0.05985983        0.10813076
     191          0.046208        0.000000        0.07530280        0.08982868        0.04705386        0.06907495
     192          0.046527        0.000000        0.06155285        0.06376237        0.05023019        0.09359531
     193          0.051197        0.000000        0.07183063        0.13241109        0.05057087        0.04186269
     194          0.052376        0.000000        0.06405403        0.07595765        0.06323478        0.10262854
     195          0.053143        0.000000        0.06167208        0.06945230        0.06546120        0.09105766
     196          0.055226        0.000000        0.07549115        0.08699695        0.07010152        0.05172425
     197          0.056034        0.000000        0.05284451        0.13036307        0.06806559        0.05291197
     198          0.058121        0.000000        0.05378924        0.10550927        0.06750049        0.06096505
     199          0.061056        0.000000        0.07022176        0.06843188        0.04828032        0.06520018
     200          0.062374        0.000000        0.04956894        0.05876832        0.03672926        0.06294413
     201          0.064348        0.000000        0.08309186        0.07012898        0.04355719        0.03557083
     202          0.066688        0.000000        0.07320200        0.04819040        0.04658777        0.05663144
     203          0.067602        0.000000        0.05821336        0.04324393        0.02649502        0.07137904
     204          0.068342        0.000000        0.09913227        0.04930777        0.04606514        0.05401467
     205          0.069073        0.000000        0.08438296        0.03553750        0.05294079        0.07528886
     206          0.070280        0.000000        0.10084138        0.05946533        0.05828132        0.05033870
     207          0.070676        0.000000        0.12845127        0.05064807        0.05486181        0.03109159
     208          0.071957        0.000000        0.08438063        0.05945451        0.04953570        0.08117644
     209          0.072568        0.000000        0.09618037        0.06555114        0.05011798        0.07105604
     210          0.073174        0.000000        0.10859123        0.03926025        0.06152898        0.05305294
