# Projected DOS for atomic kind Si at iteration step i = 0, E(Fermi) =    -0.077737 a.u.
#     MO Eigenvalue [a.u.]      Occupation                 s                py                pz                px               d-2               d-1                d0               d+1               d+2
       1         -0.499961        2.000000        0.01253209        0.00027558        0.00161956        0.00014143        0.00002006        0.00004004        0.00014001        0.00002744        0.00001981
       2         -0.486793        2.000000        0.65304473        0.00381075        0.02584889        0.00209073        0.00075091        0.00048474        0.03215125        0.00027836        0.00126102
       3         -0.481623        2.000000        0.00767425        0.00204450        0.00112779        0.00278241        0.00022749        0.00012983        0.00013425        0.00017901        0.00013618
       4         -0.480049        2.000000        0.00549374        0.00242351        0.00110049        0.00115021        0.00008381        0.00015270        0.00013697        0.00008112        0.00021972
       5         -0.475850        2.000000        0.00717584        0.00127411        0.00083967        0.00281758        0.00019740        0.00007252        0.00015959        0.00012760        0.00012901
       6         -0.474148        2.000000        0.03781125        0.01191797        0.00107945        0.00730140        0.00077528        0.00058152        0.00023857        0.00029002        0.00139935
       7         -0.472409        2.000000        0.03322491        0.01277928        0.00119747        0.00406887        0.00044045        0.00041222        0.00040628        0.00022305        0.00115626
       8         -0.470696        2.000000        0.44634704        0.14172674        0.01211377        0.05802848        0.00716458        0.00735769        0.00773597        0.00267547        0.01935070
       9         -0.467595        2.000000        0.06683441        0.01338049        0.00146089        0.01936259        0.00211359        0.00049845        0.00080875        0.00091590        0.00140748
      10         -0.465592        2.000000        0.45513977        0.06810527        0.01059564        0.14138357        0.01721424        0.00275335        0.00817476        0.00735913        0.00876964
      11         -0.464491        2.000000        0.48385091        0.07754816        0.01103174        0.14318291        0.01778229        0.00411932        0.00788610        0.00628869        0.00957718
      12         -0.463182        2.000000        0.47596937        0.08458739        0.00920363        0.13581863        0.01665356        0.00424885        0.00905903        0.00600655        0.01020944
      13         -0.459463        2.000000        0.49285653        0.09695499        0.00950967        0.13495279        0.01587356        0.00414039        0.00730756        0.00628637        0.01359715
      14         -0.457275        2.000000        0.49627122        0.18508282        0.00849865        0.05206736        0.00687422        0.00906246        0.00754076        0.00254611        0.02228429
      15         -0.439417        2.000000        0.00215275        0.00165377        0.00059540        0.00082230        0.00019278        0.00027393        0.00016034        0.00016955        0.00016007
      16         -0.436775        2.000000        0.00367107        0.00085376        0.00049991        0.00295078        0.00026518        0.00018997        0.00016287        0.00029635        0.00036331
      17         -0.432843        2.000000        0.00504487        0.00150669        0.00038454        0.00340787        0.00044502        0.00014599        0.00016245        0.00028618        0.00041632
      18         -0.432184        2.000000        0.00812713        0.00355616        0.00040980        0.00412736        0.00065763        0.00034782        0.00013210        0.00035497        0.00066588
      19         -0.430426        2.000000        0.04218856        0.01875829        0.00052806        0.01713180        0.00358898        0.00125286        0.00029548        0.00109051        0.00367583
      20         -0.429387        2.000000        0.00945823        0.00412048        0.00046560        0.00433651        0.00069699        0.00055153        0.00017268        0.00033583        0.00095665
      21         -0.427794        2.000000        0.30517061        0.10532594        0.00189574        0.14324098        0.02742894        0.00643886        0.00056018        0.01086813        0.02604796
      22         -0.427271        2.000000        0.00885957        0.00481799        0.00053350        0.00314361        0.00073734        0.00039463        0.00016009        0.00026689        0.00077608
      23         -0.426144        2.000000        0.07540955        0.02541841        0.00064173        0.03702414        0.00654265        0.00217276        0.00027201        0.00228542        0.00649145
      24         -0.424394        2.000000        0.35577104        0.14586622        0.00171218        0.14774013        0.03249951        0.01148744        0.00037406        0.01015990        0.02998480
      25         -0.421778        2.000000        0.38554385        0.12642312        0.00161378        0.19034536        0.03640693        0.00789163        0.00070835        0.01424308        0.03495613
      26         -0.421302        2.000000        0.39923365        0.19073892        0.00125790        0.11462191        0.03833708        0.01588787        0.00044534        0.00858914        0.03875647
      27         -0.419581        2.000000        0.39813483        0.10310001        0.00125840        0.18531946        0.06768283        0.00715682        0.00101650        0.01549530        0.03115053
      28         -0.418228        2.000000        0.33456284        0.12291587        0.00102254        0.11864945        0.03925060        0.00921133        0.00102960        0.00896293        0.03313172
      29         -0.418119        2.000000        0.15959586        0.07820893        0.00086110        0.03239651        0.00926956        0.00664535        0.00063209        0.00326964        0.03063829
      30         -0.417190        2.000000        0.32030589        0.12603448        0.00093207        0.11936736        0.02190907        0.00935684        0.00076613        0.00765283        0.04379841
      31         -0.416538        2.000000        0.39776088        0.18629506        0.00103485        0.11815248        0.03181153        0.01390452        0.00135638        0.00771954        0.05318503
      32         -0.412499        2.000000        0.40456685        0.11879457        0.00191262        0.16021027        0.05943130        0.00912774        0.00141671        0.01300750        0.04175056
      33         -0.376480        2.000000        0.00762651        0.00374609        0.00284666        0.00832428        0.00028347        0.00039902        0.00067169        0.00058447        0.00017873
      34         -0.374056        2.000000        0.01028552        0.00471922        0.00318948        0.01148262        0.00025593        0.00049152        0.00101520        0.00094080        0.00016173
      35         -0.371723        2.000000        0.02164732        0.03098388        0.00746454        0.00108118        0.00020949        0.00263363        0.00177067        0.00033911        0.00070874
      36         -0.367566        2.000000        0.04381097        0.01700869        0.01150626        0.03986875        0.00214289        0.00237924        0.00280672        0.00475334        0.00102202
      37         -0.364541        2.000000        0.04202081        0.02506107        0.00731694        0.03237849        0.00132715        0.00248553        0.00239431        0.00384010        0.00111009
      38         -0.364002        2.000000        0.21816877        0.25767233        0.03252435        0.04613642        0.00289512        0.02467485        0.01083519        0.00535039        0.00872283
      39         -0.363860        2.000000        0.22252060        0.08490078        0.03120734        0.21255033        0.00777298        0.01083292        0.00963940        0.02024837        0.00523087
      40         -0.362921        2.000000        0.25480777        0.09836659        0.03571447        0.25070087        0.00901959        0.01124642        0.01101842        0.02551553        0.00337186
      41         -0.361208        2.000000        0.08628690        0.07820239        0.01723539        0.02173330        0.00460108        0.00910334        0.00575935        0.00358389        0.00594586
      42         -0.360453        2.000000        0.01766553        0.01970715        0.00328752        0.00292520        0.00046160        0.00249609        0.00093857        0.00073606        0.00108967
      43         -0.357432        2.000000        0.15571811        0.06697802        0.03208923        0.08012877        0.01411762        0.01036084        0.01054788        0.01116778        0.01412086
      44         -0.356891        2.000000        0.08685291        0.03641221        0.02040538        0.04626645        0.00977918        0.00457048        0.00548312        0.00739623        0.00614822
      45         -0.355754        2.000000        0.05729539        0.02759767        0.01482035        0.02608933        0.00520471        0.00408706        0.00407138        0.00423146        0.00579272
      46         -0.354455        2.000000        0.29034738        0.15447297        0.06320975        0.11047755        0.01719475        0.02382824        0.01644300        0.01647615        0.03865530
      47         -0.353201        2.000000        0.30229450        0.09655397        0.06330466        0.17425631        0.04716307        0.01338466        0.01944136        0.02522133        0.01200919
      48         -0.352691        2.000000        0.29391125        0.16752453        0.05529535        0.11542181        0.02085974        0.02200888        0.02254724        0.01556283        0.03712103
      49         -0.351282        2.000000        0.27537342        0.14311635        0.06282709        0.11437142        0.01897104        0.02272976        0.01477940        0.01589932        0.03291206
      50         -0.350402        2.000000        0.30002651        0.11566672        0.06769574        0.15653346        0.03821884        0.01421489        0.02111553        0.02267634        0.02085185
      51         -0.341018        2.000000        0.03406139        0.00801335        0.07601255        0.00993544        0.00211364        0.00275468        0.00699248        0.00399803        0.00235194
      52         -0.335672        2.000000        0.05492857        0.01540372        0.13444369        0.00322782        0.00069840        0.00898199        0.00787024        0.00090753        0.00445414
      53         -0.333698        2.000000        0.04290411        0.00419243        0.14771503        0.00358763        0.00103744        0.00328435        0.00669672        0.00269052        0.00129597
      54         -0.332723        2.000000        0.05545103        0.00862711        0.09901500        0.01372295        0.00465564        0.00325471        0.00823819        0.00805551        0.00229590
      55         -0.330652        2.000000        0.05863847        0.00972338        0.10774298        0.01047861        0.00341919        0.00570496        0.00801331        0.00621440        0.00324636
      56         -0.328363        2.000000        0.10771570        0.01627920        0.19355823        0.02529559        0.00708842        0.00717592        0.01295953        0.01297722        0.00368800
      57         -0.327808        2.000000        0.05812216        0.01815799        0.13171525        0.00298321        0.00064240        0.00779019        0.00773638        0.00151142        0.00455623
      58         -0.321895        2.000000        0.15838766        0.04134826        0.20721584        0.03192668        0.00871615        0.01506633        0.01775270        0.00894116        0.01022328
      59         -0.321451        2.000000        0.11556328        0.02187507        0.18036677        0.02418024        0.00696908        0.00810166        0.01221139        0.00918396        0.00563344
      60         -0.319908        2.000000        0.14971596        0.02323349        0.21721306        0.03572442        0.01016941        0.00769728        0.01577112        0.01608224        0.00643543
      61         -0.318302        2.000000        0.13097986        0.03005730        0.17799136        0.02384944        0.00643875        0.01038729        0.01319714        0.00925993        0.00747251
      62         -0.317735        2.000000        0.13606375        0.02030148        0.18345032        0.04227189        0.01037714        0.00583741        0.01549802        0.01494869        0.00498315
      63         -0.315473        2.000000        0.14551554        0.04744759        0.20749713        0.01755967        0.00461830        0.01576044        0.01590236        0.00669529        0.01260551
      64         -0.310959        2.000000        0.10709388        0.01025037        0.27648007        0.01572681        0.00321058        0.00368671        0.01118372        0.00536414        0.00276670
      65         -0.244626        2.000000        0.00524929        0.09273457        0.38886418        0.19288877        0.00377100        0.00485367        0.02059644        0.00713200        0.00397150
      66         -0.243518        2.000000        0.00297943        0.08836828        0.38246059        0.17869850        0.00158805        0.00348439        0.01936509        0.00498501        0.00184952
      67         -0.239930        2.000000        0.00676476        0.18355217        0.39073128        0.08802354        0.00691382        0.00432540        0.01816285        0.00443095        0.00348942
      68         -0.238134        2.000000        0.01157446        0.07287798        0.30879586        0.12670504        0.00980830        0.00741155        0.01463151        0.00596325        0.01349342
      69         -0.235767        2.000000        0.00962771        0.07941474        0.24387169        0.09942534        0.00960083        0.00464369        0.01027619        0.00379704        0.00714226
      70         -0.234460        2.000000        0.01269693        0.09710572        0.29497670        0.09002350        0.01201122        0.00578994        0.01166452        0.00394685        0.00871571
      71         -0.233061        2.000000        0.01331202        0.10095511        0.25153676        0.16513786        0.00927336        0.00948420        0.01772786        0.00223636        0.01495371
      72         -0.231198        2.000000        0.00640319        0.05098919        0.15804138        0.05418524        0.00374217        0.00429771        0.00865817        0.00183034        0.00762851
      73         -0.230192        2.000000        0.01017591        0.07804514        0.19321045        0.12170400        0.00796823        0.00852126        0.00957030        0.00288185        0.01250964
      74         -0.228748        2.000000        0.01536339        0.07469878        0.31118695        0.14700974        0.01474026        0.00665567        0.01551940        0.00480123        0.01208236
      75         -0.228478        2.000000        0.01132295        0.07820497        0.18306837        0.10556235        0.01028788        0.00565805        0.01754511        0.00268820        0.00795172
      76         -0.227503        2.000000        0.01670009        0.06356013        0.30452575        0.17261515        0.01588328        0.00619124        0.01410097        0.00377327        0.01512878
      77         -0.225452        2.000000        0.01084309        0.17883669        0.21808934        0.17148628        0.01571286        0.00864193        0.03227526        0.00681219        0.00976377
      78         -0.223374        2.000000        0.01535531        0.24005268        0.18496765        0.18594444        0.01473178        0.00718964        0.04680942        0.00869009        0.01467893
      79         -0.222887        2.000000        0.02631065        0.10727979        0.20472656        0.19211328        0.02373483        0.00437114        0.02390882        0.00461815        0.00990359
      80         -0.222050        2.000000        0.01616262        0.15641841        0.18012904        0.03427141        0.00585229        0.00410848        0.02156696        0.00422772        0.01562705
      81         -0.221570        2.000000        0.01142374        0.12393453        0.15696133        0.16552182        0.01190185        0.00977531        0.03735835        0.00346449        0.00738294
      82         -0.219785        2.000000        0.01809034        0.23013732        0.16492000        0.17999019        0.01779845        0.00308893        0.02549438        0.01161776        0.01526856
      83         -0.219021        2.000000        0.00601384        0.19718046        0.17670118        0.11133668        0.00959306        0.00833799        0.03862211        0.01035078        0.00795919
      84         -0.218563        2.000000        0.03596331        0.10561090        0.20976844        0.16843038        0.02494318        0.00242367        0.03196525        0.00316264        0.01589666
      85         -0.218032        2.000000        0.02218154        0.17853068        0.13574529        0.18179767        0.01624776        0.00392274        0.02070009        0.00799460        0.01662340
      86         -0.217380        2.000000        0.00968508        0.16863298        0.15544594        0.10372686        0.01075407        0.00580455        0.02124021        0.00833497        0.01026781
      87         -0.216918        2.000000        0.01869545        0.10772444        0.14931226        0.17027033        0.01432492        0.00742702        0.03084655        0.00453313        0.01493034
      88         -0.216313        2.000000        0.00738352        0.22799342        0.10855072        0.15568605        0.01393512        0.00522817        0.02438751        0.01122346        0.01079116
      89         -0.215353        2.000000        0.01273907        0.07538453        0.08304797        0.06176461        0.01000321        0.00410382        0.01389090        0.00245869        0.00893828
      90         -0.214655        2.000000        0.02622310        0.18145412        0.20640461        0.11970307        0.01208119        0.00612229        0.03471202        0.00491065        0.02823185
      91         -0.213904        2.000000        0.01406707        0.09117098        0.16262131        0.04902748        0.00734734        0.00460332        0.02323637        0.00152410        0.01383785
      92         -0.212781        2.000000        0.01726095        0.08410500        0.19890281        0.06931492        0.00959851        0.00366751        0.04542540        0.00604530        0.01351721
      93         -0.212552        2.000000        0.01277600        0.09161433        0.12955941        0.04669277        0.00643591        0.00332003        0.02923609        0.00383450        0.01118547
      94         -0.211679        2.000000        0.02784299        0.18113786        0.19154493        0.12457780        0.01732559        0.00513748        0.02412534        0.00401559        0.02771697
      95         -0.210897        2.000000        0.01991532        0.10890466        0.22381621        0.16043974        0.01805968        0.01165656        0.04349467        0.00549189        0.01371752
      96         -0.210458        2.000000        0.01359922        0.07302626        0.25407721        0.10568635        0.01801842        0.00789872        0.04240842        0.01313979        0.01091192
      97         -0.209773        2.000000        0.00760473        0.04575155        0.08356861        0.05770724        0.00764306        0.00208129        0.01085054        0.00283629        0.00701983
      98         -0.208475        2.000000        0.00969267        0.03819439        0.16094026        0.06899466        0.01046610        0.00388503        0.03702647        0.00309537        0.00818742
      99         -0.207449        2.000000        0.00931022        0.06706393        0.21011637        0.08549705        0.00976816        0.00672197        0.06994864        0.00451962        0.01012343
     100         -0.206890        2.000000        0.00837212        0.05574861        0.11988826        0.06055220        0.00913744        0.00289722        0.03239072        0.00390305        0.00658543
     101         -0.206631        2.000000        0.01004254        0.07412289        0.11922900        0.03085937        0.00314451        0.00252262        0.02623805        0.00296187        0.01171669
     102         -0.205812        2.000000        0.00724991        0.03961135        0.15181630        0.04855811        0.00573632        0.00629389        0.04853707        0.00375573        0.00614859
     103         -0.204724        2.000000        0.00379580        0.03632936        0.06936888        0.04528786        0.00323888        0.00224811        0.01814175        0.00299394        0.00636049
     104         -0.203136        2.000000        0.00344680        0.05768154        0.18877480        0.03635187        0.00362410        0.00514061        0.06795503        0.00525402        0.00331946
     105         -0.203091        2.000000        0.01178831        0.08182603        0.20032134        0.05297063        0.00673803        0.00500180        0.05773840        0.00553019        0.01548227
     106         -0.202678        2.000000        0.01350315        0.09574147        0.19065064        0.13083545        0.01278597        0.01190690        0.03593963        0.00779896        0.01533945
     107         -0.202422        2.000000        0.00487808        0.04891490        0.16224819        0.06172806        0.00723195        0.00750803        0.03595986        0.00480634        0.00733303
     108         -0.200532        2.000000        0.00736693        0.10583810        0.14537559        0.03382759        0.00867072        0.00699363        0.02687320        0.00631117        0.01028227
     109         -0.200313        2.000000        0.00872114        0.03781722        0.17082391        0.06798538        0.00824583        0.00632105        0.05145395        0.00458310        0.00888139
     110         -0.199588        2.000000        0.00828048        0.06666724        0.18848597        0.05182060        0.01094879        0.00522797        0.05391466        0.00652349        0.00724405
     111         -0.198178        2.000000        0.00747582        0.04499878        0.13646954        0.10025917        0.00882965        0.00701059        0.03628385        0.00449397        0.01066688
     112         -0.197892        2.000000        0.00868567        0.04409633        0.11742004        0.08325264        0.00740786        0.00606190        0.02069680        0.00378067        0.01024312
     113         -0.197142        2.000000        0.00390074        0.05009631        0.10546260        0.02525112        0.00648308        0.00369879        0.02286365        0.00546118        0.00442618
     114         -0.196347        2.000000        0.00629344        0.03859024        0.10618644        0.06567128        0.00686855        0.00597073        0.01899995        0.00348914        0.00769185
     115         -0.195165        2.000000        0.01088098        0.10767834        0.18242741        0.06794992        0.01931272        0.00471133        0.05711524        0.00751503        0.00711016
     116         -0.194554        2.000000        0.00537222        0.05072638        0.12210869        0.06129935        0.00595066        0.00489589        0.02601872        0.00536558        0.00966594
     117         -0.194066        2.000000        0.00376439        0.04978867        0.09794571        0.03912628        0.00652695        0.00468397        0.02462490        0.00537742        0.00515454
     118         -0.193646        2.000000        0.00391075        0.01682023        0.10439501        0.03720502        0.00484056        0.00473164        0.02987297        0.00297018        0.00383034
     119         -0.193089        2.000000        0.00763387        0.08639751        0.16567092        0.05210644        0.01301172        0.00644340        0.03493419        0.00807193        0.00706672
     120         -0.191700        2.000000        0.00334637        0.02210600        0.07942788        0.02129598        0.00504044        0.00228453        0.02046836        0.00264641        0.00304053
     121         -0.191069        2.000000        0.00780225        0.10028355        0.17207916        0.05642706        0.01819797        0.00555686        0.03032616        0.00889767        0.00642925
     122         -0.190301        2.000000        0.00376894        0.02001780        0.09014085        0.02257330        0.00365608        0.00311103        0.02404024        0.00207532        0.00323107
     123         -0.188850        2.000000        0.00257155        0.02577418        0.06663368        0.02638603        0.00419630        0.00249167        0.01770307        0.00292448        0.00302814
     124         -0.188151        2.000000        0.00589826        0.04696383        0.17218083        0.04248802        0.00710725        0.00689570        0.05266601        0.00689637        0.00747986
     125         -0.186877        2.000000        0.00309933        0.01953040        0.07957452        0.01354026        0.00290099        0.00215946        0.02145708        0.00210343        0.00356654
     126         -0.184851        2.000000        0.00153605        0.01793143        0.08015399        0.01386681        0.00246739        0.00312699        0.02544732        0.00346950        0.00133202
     127         -0.183426        2.000000        0.00103430        0.01087067        0.04065930        0.01619100        0.00264666        0.00157426        0.00876621        0.00250204        0.00124091
     128         -0.182459        2.000000        0.00425323        0.04107934        0.11725263        0.03067886        0.00715508        0.00362247        0.03576827        0.00408741        0.00332040
     129         -0.180118        2.000000        0.00177636        0.01510470        0.06296429        0.02094998        0.00328155        0.00227609        0.01473674        0.00250911        0.00211026
     130         -0.178333        2.000000        0.00337651        0.03213879        0.06515754        0.02341037        0.00473320        0.00252370        0.01648559        0.00321755        0.00297347
     131         -0.177290        2.000000        0.00315964        0.02846067        0.07784286        0.01236475        0.00230549        0.00350164        0.02305876        0.00277486        0.00404044
     132         -0.175458        2.000000        0.00078608        0.01757165        0.04883365        0.02107587        0.00170118        0.00228415        0.01195759        0.00181885        0.00199760
     133         -0.174274        2.000000        0.00054936        0.01622488        0.03084514        0.00897999        0.00074135        0.00216609        0.00836028        0.00083977        0.00161656
     134         -0.173051        2.000000        0.00114157        0.01923841        0.03519613        0.02663596        0.00294590        0.00183731        0.00789572        0.00215777        0.00089221
     135         -0.172298        2.000000        0.00062254        0.01828680        0.02599996        0.03884575        0.00221372        0.00111035        0.00565393        0.00249308        0.00086392
     136         -0.169457        2.000000        0.00362802        0.04109926        0.07642135        0.04135485        0.00303656        0.00257339        0.03048164        0.00278382        0.00224042
     137         -0.168615        2.000000        0.00156638        0.18530659        0.02500989        0.22043927        0.00451662        0.00759827        0.00621836        0.00839338        0.00476336
     138         -0.167968        2.000000        0.00137014        0.07249398        0.03957382        0.05099342        0.00219662        0.00277030        0.01502061        0.00322551        0.00246211
     139         -0.167580        2.000000        0.00106793        0.34416204        0.03215749        0.12244801        0.00478910        0.01200762        0.00577476        0.00577709        0.00856140
     140         -0.166091        2.000000        0.00174911        0.02244481        0.03821390        0.59262422        0.01329753        0.00286983        0.00993404        0.02143092        0.00343373
     141         -0.163535        2.000000        0.00225093        0.60260854        0.02992469        0.21493893        0.00695677        0.01985459        0.00713531        0.01265461        0.01186328
     142         -0.154046        2.000000        0.00216545        0.06622942        0.02089584        0.73147227        0.07583589        0.00372611        0.00527198        0.02538327        0.00878826
     143         -0.148970        2.000000        0.00094242        0.51954602        0.01328685        0.29646018        0.03259791        0.01587654        0.00229856        0.01083784        0.05668224
     144         -0.147384        2.000000        0.00120391        0.59196488        0.02449652        0.20165475        0.02207930        0.01848815        0.00544233        0.00912210        0.06655737