# Projected DOS for atomic kind Ge at iteration step i = 0, E(Fermi) =    -0.077658 a.u.
#     MO Eigenvalue [a.u.]      Occupation                 s                py                pz                px               d-2               d-1                d0               d+1               d+2
       1         -0.500076        2.000000        0.75434666        0.00475879        0.02057850        0.00492881        0.00067096        0.00046985        0.00798719        0.00061373        0.00080367
       2         -0.487486        2.000000        0.01025450        0.00014960        0.00288046        0.00031522        0.00003555        0.00001465        0.00059198        0.00004332        0.00002728
       3         -0.481538        2.000000        0.65483093        0.08040676        0.01312715        0.03694808        0.00374574        0.00406311        0.00296206        0.00235861        0.00834072
       4         -0.480282        2.000000        0.65404848        0.03248419        0.01380046        0.08026700        0.00730190        0.00194105        0.00300336        0.00420380        0.00296593
       5         -0.475878        2.000000        0.65003268        0.03739505        0.00916632        0.08006318        0.00772594        0.00204566        0.00354887        0.00460379        0.00404386
       6         -0.474182        2.000000        0.59906075        0.05032207        0.00849838        0.05645585        0.00542272        0.00245099        0.00290680        0.00330412        0.00510916
       7         -0.472429        2.000000        0.61938934        0.09567126        0.00852931        0.01526109        0.00235362        0.00494741        0.00325756        0.00103905        0.00959876
       8         -0.471241        2.000000        0.07483946        0.00988364        0.00253755        0.00287103        0.00031628        0.00062110        0.00059625        0.00021920        0.00124563
       9         -0.468175        2.000000        0.45159552        0.02863537        0.00548635        0.05647133        0.00529435        0.00151899        0.00215749        0.00328108        0.00288454
      10         -0.466855        2.000000        0.19214848        0.01110813        0.00449011        0.02549500        0.00251018        0.00063896        0.00126709        0.00129868        0.00102155
      11         -0.465133        2.000000        0.03416830        0.00176869        0.00195352        0.00387266        0.00049321        0.00014767        0.00040291        0.00037962        0.00027278
      12         -0.463214        2.000000        0.02717328        0.00233821        0.00214582        0.00233757        0.00028520        0.00017103        0.00043110        0.00019707        0.00032706
      13         -0.460269        2.000000        0.00837908        0.00057410        0.00127632        0.00068982        0.00009075        0.00010462        0.00021428        0.00005563        0.00012507
      14         -0.457942        2.000000        0.00338664        0.00048302        0.00082225        0.00016249        0.00003112        0.00004397        0.00013419        0.00002846        0.00007965
      15         -0.439069        2.000000        0.54752394        0.13637427        0.00248074        0.07975753        0.01295963        0.00898343        0.00080489        0.00607455        0.01649342
      16         -0.437313        2.000000        0.54543087        0.06600545        0.00213219        0.15046635        0.01874192        0.00579064        0.00074047        0.00894107        0.01359606
      17         -0.432915        2.000000        0.54797866        0.07126669        0.00144655        0.13342261        0.02224745        0.00472922        0.00045602        0.01024065        0.01296280
      18         -0.432173        2.000000        0.52942854        0.10746466        0.00279953        0.10557827        0.01475768        0.00782291        0.00047792        0.00802160        0.01357202
      19         -0.430587        2.000000        0.42267121        0.10736463        0.00092678        0.06109343        0.00980450        0.00621937        0.00034326        0.00408568        0.01409206
      20         -0.428780        2.000000        0.27349973        0.07359941        0.00126915        0.02300139        0.00428040        0.00486183        0.00031603        0.00217058        0.01536408
      21         -0.428459        2.000000        0.47663545        0.07862284        0.00129777        0.09723915        0.01562377        0.00660356        0.00049396        0.00572908        0.01798507
      22         -0.427474        2.000000        0.55229105        0.11367842        0.00205833        0.07954566        0.01563635        0.00772717        0.00048847        0.00561821        0.02463611
      23         -0.426749        2.000000        0.44849641        0.08789161        0.00171360        0.09523378        0.01294150        0.00489324        0.00028218        0.00564789        0.01374715
      24         -0.425004        2.000000        0.03947915        0.00562587        0.00022352        0.01015843        0.00123693        0.00037951        0.00005089        0.00078695        0.00098146
      25         -0.423198        2.000000        0.01645818        0.00259931        0.00022136        0.00354448        0.00061232        0.00016457        0.00003517        0.00029966        0.00051202
      26         -0.421558        2.000000        0.00695329        0.00167689        0.00035138        0.00101885        0.00018342        0.00013561        0.00003846        0.00008142        0.00028015
      27         -0.420598        2.000000        0.01378888        0.00189962        0.00057334        0.00346200        0.00052981        0.00015260        0.00005446        0.00021823        0.00043388
      28         -0.419276        2.000000        0.04829580        0.00537680        0.00053636        0.01235373        0.00235996        0.00035600        0.00006841        0.00075431        0.00096912
      29         -0.418677        2.000000        0.28875556        0.03450769        0.00193368        0.06647404        0.01409278        0.00223218        0.00031283        0.00484441        0.00631943
      30         -0.418103        2.000000        0.21822597        0.02406837        0.00146357        0.05120539        0.01009842        0.00180736        0.00021059        0.00373560        0.00482693
      31         -0.416485        2.000000        0.00375564        0.00095347        0.00046161        0.00081336        0.00013703        0.00010635        0.00005554        0.00008191        0.00012969
      32         -0.412590        2.000000        0.00192962        0.00049517        0.00047554        0.00066409        0.00006886        0.00004211        0.00004796        0.00004321        0.00005497
      33         -0.376454        2.000000        0.37901378        0.09242565        0.04484414        0.18344728        0.00833028        0.00795144        0.00590428        0.01734442        0.00697400
      34         -0.373826        2.000000        0.37032512        0.09094777        0.03530312        0.19882606        0.00938972        0.00723167        0.00817552        0.01575488        0.00391837
      35         -0.371955        2.000000        0.35405917        0.20244414        0.03894001        0.06809486        0.00448695        0.01630601        0.00673784        0.00515618        0.01051255
      36         -0.367137        2.000000        0.30617884        0.07196022        0.05004942        0.08441343        0.01347073        0.00902153        0.00569444        0.00966377        0.00827128
      37         -0.365564        2.000000        0.10470770        0.02429982        0.01418760        0.03244325        0.00462658        0.00286635        0.00192022        0.00353672        0.00276113
      38         -0.364636        2.000000        0.29804646        0.08166256        0.04100055        0.09532563        0.01375150        0.00745735        0.00661259        0.01031889        0.00934644
      39         -0.363751        2.000000        0.03554881        0.00687756        0.00575913        0.01422414        0.00158571        0.00099790        0.00059568        0.00152001        0.00059261
      40         -0.363126        2.000000        0.16128034        0.04196751        0.02632283        0.05351502        0.00549716        0.00498749        0.00303858        0.00540759        0.00567315
      41         -0.360626        2.000000        0.38355648        0.11326763        0.04417507        0.11401569        0.01166366        0.01131193        0.01047611        0.00997545        0.01974127
      42         -0.360487        2.000000        0.30222768        0.12459442        0.04456266        0.06731619        0.00769951        0.01228279        0.00830857        0.00844922        0.01153661
      43         -0.357347        2.000000        0.28821888        0.08014768        0.02726980        0.09311567        0.01365357        0.00625663        0.00923252        0.00851456        0.00869785
      44         -0.357053        2.000000        0.22082132        0.06670434        0.02776911        0.06248934        0.00893808        0.00597842        0.00631797        0.00662448        0.00721741
      45         -0.356731        2.000000        0.01607157        0.00541733        0.00191214        0.00458853        0.00055723        0.00056362        0.00038546        0.00043327        0.00076415
      46         -0.356365        2.000000        0.32943412        0.09570328        0.04201746        0.09208787        0.01026485        0.00976231        0.00913612        0.00865228        0.01594713
      47         -0.354367        2.000000        0.01608609        0.00442926        0.00191408        0.00529003        0.00068511        0.00042773        0.00035390        0.00047257        0.00070348
      48         -0.353250        2.000000        0.00883052        0.00268156        0.00217073        0.00293895        0.00030337        0.00032443        0.00020967        0.00021202        0.00034938
      49         -0.352170        2.000000        0.04116775        0.01409695        0.00687759        0.01055300        0.00122052        0.00110271        0.00093668        0.00105489        0.00179501
      50         -0.350286        2.000000        0.00489191        0.00144591        0.00251472        0.00148085        0.00014860        0.00014468        0.00019772        0.00016180        0.00014905
      51         -0.340727        2.000000        0.21800163        0.02057548        0.23750968        0.03231550        0.00559185        0.00568451        0.00843824        0.00767441        0.00323771
      52         -0.336146        2.000000        0.21147129        0.04146785        0.21125579        0.01826694        0.00275527        0.00922496        0.01057605        0.00309530        0.00750829
      53         -0.334057        2.000000        0.12797312        0.01122685        0.15712570        0.01890615        0.00353694        0.00191669        0.00825947        0.00476668        0.00168089
      54         -0.332265        2.000000        0.14442197        0.01762831        0.14955490        0.01984839        0.00407813        0.00350433        0.00791278        0.00517176        0.00233588
      55         -0.331022        2.000000        0.16428147        0.01741260        0.15091927        0.03013017        0.00448090        0.00431021        0.01116735        0.00562175        0.00319359
      56         -0.329283        2.000000        0.11867888        0.01049852        0.09995861        0.02401232        0.00448433        0.00196129        0.00759599        0.00451870        0.00195868
      57         -0.328531        2.000000        0.19205362        0.03155680        0.18118071        0.01810413        0.00270413        0.00622951        0.01123154        0.00400783        0.00545167
      58         -0.322560        2.000000        0.13588330        0.02101385        0.11989944        0.01926694        0.00303599        0.00440619        0.00805382        0.00333469        0.00309265
      59         -0.321431        2.000000        0.09637468        0.01376661        0.06469317        0.01928912        0.00289990        0.00219277        0.00572275        0.00286632        0.00235547
      60         -0.319531        2.000000        0.09783534        0.01991051        0.07531599        0.01129687        0.00171463        0.00313335        0.00524441        0.00188044        0.00328304
      61         -0.319303        2.000000        0.11271321        0.00962232        0.12543803        0.01989360        0.00310213        0.00136452        0.00563364        0.00328965        0.00128121
      62         -0.318938        2.000000        0.09022729        0.01185518        0.06036995        0.01846398        0.00286431        0.00202201        0.00491945        0.00267949        0.00179387
      63         -0.315781        2.000000        0.13360741        0.02294508        0.11565615        0.01207499        0.00215827        0.00434025        0.00715058        0.00308544        0.00367642
      64         -0.309531        2.000000        0.07279703        0.00625454        0.09964869        0.00621925        0.00115463        0.00099648        0.00395114        0.00115876        0.00082093
      65         -0.244271        2.000000        0.00269917        0.00788387        0.01820086        0.01011953        0.00026086        0.00045288        0.00137371        0.00034119        0.00054789
      66         -0.243640        2.000000        0.00081466        0.00171873        0.00658775        0.00345247        0.00013185        0.00012284        0.00038333        0.00028684        0.00015278
      67         -0.240883        2.000000        0.00150225        0.00282846        0.00902086        0.00264568        0.00021232        0.00047018        0.00103483        0.00016660        0.00024719
      68         -0.238481        2.000000        0.00682714        0.02133618        0.07577962        0.03790696        0.00144500        0.00076279        0.00447146        0.00071990        0.00234635
      69         -0.236386        2.000000        0.00778735        0.04490674        0.11816091        0.06337344        0.00255450        0.00105792        0.00505353        0.00062238        0.00196005
      70         -0.234826        2.000000        0.00593084        0.05077858        0.09379147        0.04500435        0.00166925        0.00088481        0.00276908        0.00055679        0.00174531
      71         -0.233298        2.000000        0.00421430        0.01958475        0.07354618        0.03861880        0.00069307        0.00043276        0.00267570        0.00039774        0.00147453
      72         -0.231574        2.000000        0.00633957        0.07991005        0.23325498        0.11542996        0.00141216        0.00075368        0.00699994        0.00131249        0.00221437
      73         -0.230618        2.000000        0.00414795        0.04417440        0.19147385        0.08715014        0.00198570        0.00079143        0.00761224        0.00138083        0.00072414
      74         -0.228783        2.000000        0.00423461        0.03494066        0.10276210        0.05155867        0.00150341        0.00076129        0.00342003        0.00085462        0.00170049
      75         -0.228286        2.000000        0.00411906        0.11875616        0.16824503        0.03619398        0.00237884        0.00116329        0.00527705        0.00053728        0.00061388
      76         -0.227733        2.000000        0.00444628        0.01952897        0.08760525        0.03725418        0.00113571        0.00074205        0.00317144        0.00053416        0.00168596
      77         -0.225810        2.000000        0.00429761        0.02117327        0.05879792        0.01725979        0.00135258        0.00031339        0.00390614        0.00034648        0.00100042
      78         -0.224496        2.000000        0.00382342        0.01185413        0.04662444        0.02088727        0.00093420        0.00036602        0.00244860        0.00023946        0.00098321
      79         -0.223260        2.000000        0.00360841        0.03410196        0.10046511        0.03455013        0.00088705        0.00070514        0.00454394        0.00083818        0.00192958
      80         -0.222336        2.000000        0.00688644        0.02910014        0.11164390        0.03891542        0.00179338        0.00103526        0.00862953        0.00076344        0.00174479
      81         -0.222189        2.000000        0.00736666        0.04575033        0.15336762        0.05337363        0.00400082        0.00131273        0.00936556        0.00113542        0.00306013
      82         -0.220508        2.000000        0.00340621        0.04871045        0.11151451        0.01610346        0.00164082        0.00088204        0.00661188        0.00085787        0.00179550
      83         -0.219907        2.000000        0.00716826        0.02151582        0.06051591        0.02995623        0.00209534        0.00041589        0.00450875        0.00052000        0.00166344
      84         -0.218620        2.000000        0.00447025        0.03424131        0.13847098        0.04620667        0.00286265        0.00108472        0.00857978        0.00090398        0.00158720
      85         -0.218392        2.000000        0.00610924        0.03067388        0.10092822        0.03933361        0.00280806        0.00081900        0.00433104        0.00084363        0.00176641
      86         -0.217550        2.000000        0.00699753        0.02237786        0.09336280        0.04835602        0.00237652        0.00116872        0.00576959        0.00068465        0.00248316
      87         -0.217450        2.000000        0.00817231        0.04617581        0.12025731        0.07065201        0.00266582        0.00143134        0.00511131        0.00119297        0.00457169
      88         -0.216596        2.000000        0.00823935        0.07689850        0.22086477        0.07412626        0.00382213        0.00199700        0.00810544        0.00111817        0.00642567
      89         -0.215551        2.000000        0.01214025        0.11293036        0.25355002        0.08309273        0.00614033        0.00228049        0.01044586        0.00174410        0.00524090
      90         -0.215145        2.000000        0.00301389        0.02154371        0.06472431        0.02012885        0.00151381        0.00086979        0.00344842        0.00044502        0.00127143
      91         -0.213987        2.000000        0.00856734        0.04806091        0.18256401        0.07433634        0.00336896        0.00155642        0.01059412        0.00187999        0.00385657
      92         -0.213207        2.000000        0.00895965        0.04291671        0.16209113        0.04825351        0.00363933        0.00217668        0.01267211        0.00174141        0.00297244
      93         -0.212507        2.000000        0.01200032        0.04874017        0.15500787        0.09085628        0.00511414        0.00187179        0.00718621        0.00148182        0.00511779
      94         -0.212147        2.000000        0.00709481        0.02659062        0.10480870        0.05449644        0.00345443        0.00072780        0.00737021        0.00130950        0.00201697
      95         -0.210783        2.000000        0.00478458        0.02950331        0.09034131        0.05172029        0.00138072        0.00162243        0.00920182        0.00121342        0.00247296
      96         -0.210201        2.000000        0.00783251        0.08165584        0.19014008        0.05881834        0.00425720        0.00273765        0.01218696        0.00159696        0.00487624
      97         -0.209676        2.000000        0.00712179        0.04526070        0.22225451        0.07380997        0.00461004        0.00377538        0.01492477        0.00166535        0.00292150
      98         -0.209204        2.000000        0.00636213        0.06285348        0.18116213        0.04153913        0.00357907        0.00241101        0.01463435        0.00159925        0.00278754
      99         -0.207032        2.000000        0.01504416        0.08172922        0.16268693        0.10942237        0.00698470        0.00206607        0.01514477        0.00339576        0.00277025
     100         -0.206826        2.000000        0.00890169        0.11298897        0.17502398        0.08578437        0.00458680        0.00274875        0.01935394        0.00319735        0.00541788
     101         -0.206444        2.000000        0.01447004        0.11729108        0.13092655        0.07108684        0.00513656        0.00231914        0.01173975        0.00305579        0.00574229
     102         -0.206061        2.000000        0.01412535        0.04301385        0.17240357        0.08079533        0.00293594        0.00226548        0.01955876        0.00154038        0.00510642
     103         -0.204577        2.000000        0.01126470        0.06724195        0.13487791        0.05376598        0.00425069        0.00171851        0.01201124        0.00231203        0.00299553
     104         -0.203501        2.000000        0.01669084        0.10743349        0.19472398        0.11334424        0.00862315        0.00319221        0.02225063        0.00358264        0.00402932
     105         -0.203088        2.000000        0.01382664        0.11737887        0.10628193        0.09231738        0.00673034        0.00267792        0.01495752        0.00181210        0.00578906
     106         -0.202590        2.000000        0.00918152        0.06301799        0.14686525        0.12870069        0.00466580        0.00352358        0.01248265        0.00266053        0.00451446
     107         -0.201942        2.000000        0.00669093        0.10674897        0.10428037        0.09504240        0.00335546        0.00359141        0.01488730        0.00287103        0.00326049
     108         -0.201072        2.000000        0.02648432        0.09983769        0.15790562        0.13633392        0.01100211        0.00274119        0.01656547        0.00225922        0.00866217
     109         -0.200249        2.000000        0.01421180        0.04464933        0.08715394        0.06894032        0.00542823        0.00157148        0.01396728        0.00218922        0.00286304
     110         -0.199937        2.000000        0.01870414        0.08560045        0.17680301        0.08964880        0.00743588        0.00201314        0.01643364        0.00269026        0.00914630
     111         -0.198437        2.000000        0.01279274        0.10532015        0.09988717        0.07152202        0.00350038        0.00430762        0.01142208        0.00177721        0.00645791
     112         -0.197970        2.000000        0.01930833        0.12171649        0.22109477        0.15979147        0.00845633        0.00430857        0.02448795        0.00547742        0.00634783
     113         -0.197174        2.000000        0.02304363        0.07313550        0.18976838        0.11263800        0.00900270        0.00301969        0.01594298        0.00239186        0.00680003
     114         -0.196508        2.000000        0.01552246        0.10898616        0.18822235        0.06506927        0.00601465        0.00393986        0.02589749        0.00402149        0.00580270
     115         -0.195619        2.000000        0.01853470        0.08478433        0.16699628        0.09032059        0.00792839        0.00221753        0.01323871        0.00306654        0.00453070
     116         -0.195052        2.000000        0.01468767        0.05950759        0.13812180        0.07573072        0.00641500        0.00198624        0.01603479        0.00242256        0.00406540
     117         -0.194501        2.000000        0.02136232        0.14546902        0.21099926        0.05943296        0.00377827        0.00276869        0.02944860        0.00280563        0.01034356
     118         -0.194139        2.000000        0.01802528        0.13572619        0.20953269        0.07186299        0.00531304        0.00354833        0.02894617        0.00382210        0.00869687
     119         -0.192829        2.000000        0.01983940        0.11946858        0.18673185        0.10176214        0.00518202        0.00271286        0.01900562        0.00198452        0.01308928
     120         -0.191914        2.000000        0.03875128        0.16719882        0.21850868        0.12370271        0.01405621        0.00275875        0.02175227        0.00315653        0.01442146
     121         -0.191393        2.000000        0.00790771        0.09779416        0.23276005        0.12637933        0.00526225        0.00806540        0.02217431        0.00398138        0.01061894
     122         -0.190370        2.000000        0.01641178        0.09800151        0.16970516        0.12273868        0.01125629        0.00338199        0.01899811        0.00372156        0.00674951
     123         -0.189628        2.000000        0.02178338        0.10579262        0.24724850        0.11690345        0.00770855        0.00465650        0.02355978        0.00481372        0.00889453
     124         -0.188561        2.000000        0.00563661        0.07907215        0.15883660        0.10929610        0.00523290        0.00449272        0.02164219        0.00451616        0.00490365
     125         -0.186553        2.000000        0.01905059        0.17571970        0.19414824        0.19125672        0.01080293        0.00482341        0.01601135        0.00838551        0.01124664
     126         -0.184126        2.000000        0.01638209        0.16672865        0.19944369        0.15055541        0.01332531        0.00499578        0.02074857        0.00629811        0.01145605
     127         -0.183568        2.000000        0.00901182        0.14830732        0.18332109        0.13309118        0.00371020        0.00381840        0.03419589        0.00696150        0.00960132
     128         -0.181839        2.000000        0.00969259        0.04225866        0.23079700        0.06857351        0.00722587        0.00301432        0.04429141        0.00504223        0.00337941
     129         -0.179613        2.000000        0.01795058        0.11349738        0.23555316        0.13477811        0.01145582        0.00474899        0.02913517        0.00773026        0.01097486
     130         -0.178834        2.000000        0.01889711        0.11298879        0.22126264        0.09465261        0.00740549        0.00461627        0.03675329        0.00523209        0.01226520
     131         -0.178071        2.000000        0.01092706        0.16703823        0.23712177        0.06925983        0.01202408        0.00659648        0.04140956        0.00679837        0.00545372
     132         -0.176274        2.000000        0.01967854        0.17170036        0.26247314        0.10845344        0.00768084        0.00709956        0.04101183        0.00969316        0.01418879
     133         -0.174735        2.000000        0.01098737        0.10990827        0.24941082        0.14680856        0.00807826        0.00812307        0.04212403        0.00557493        0.01123542
     134         -0.173702        2.000000        0.01679448        0.14715953        0.24651987        0.20545640        0.01219534        0.00894739        0.02896316        0.00934722        0.01648415
     135         -0.172459        2.000000        0.01511719        0.10508646        0.25671504        0.12081882        0.01013409        0.00571317        0.03304290        0.00789759        0.01116992
     136         -0.169267        2.000000        0.01494836        0.12724833        0.19444956        0.06784189        0.01243491        0.00604335        0.03838072        0.00425916        0.00385137
     137         -0.169030        2.000000        0.00572890        0.05628184        0.07065773        0.02418845        0.00591153        0.00210346        0.00799240        0.00304550        0.00175794
     138         -0.168235        2.000000        0.01697524        0.10785479        0.24310482        0.11263953        0.01302254        0.00857643        0.03867423        0.00721982        0.00636580
     139         -0.167589        2.000000        0.00950973        0.07928632        0.16648831        0.03204677        0.00651771        0.00480613        0.02722072        0.00460587        0.00441079
     140         -0.166165        2.000000        0.00677166        0.05239460        0.08206869        0.02104270        0.00501046        0.00154717        0.01023470        0.00257049        0.00320972
     141         -0.163879        2.000000        0.00072592        0.00548846        0.01338891        0.00294969        0.00040098        0.00026770        0.00199703        0.00026684        0.00053374
     142         -0.154237        2.000000        0.00009970        0.00107451        0.00416440        0.00113203        0.00008145        0.00007779        0.00064564        0.00007439        0.00010633
     143         -0.149316        2.000000        0.00005924        0.00036160        0.00128207        0.00074330        0.00003025        0.00003247        0.00013415        0.00005448        0.00002946
     144         -0.148111        2.000000        0.00016254        0.00076217        0.00188593        0.00081505        0.00006561        0.00007277        0.00029945        0.00002934        0.00006719