# Projected DOS for atomic kind Si at iteration step i = 0, E(Fermi) =    -0.079195 a.u.
#     MO Eigenvalue [a.u.]      Occupation                 s                py                pz                px               d-2               d-1                d0               d+1               d+2
       1         -0.501040        2.000000        0.00846091        0.00028209        0.00163189        0.00017021        0.00001960        0.00003675        0.00011586        0.00002543        0.00001501
       2         -0.483981        2.000000        0.64651855        0.00367417        0.02636444        0.00279076        0.00088330        0.00047273        0.03093991        0.00026253        0.00083408
       3         -0.482794        2.000000        0.01281417        0.00153242        0.00153778        0.00241984        0.00021933        0.00010345        0.00065297        0.00015974        0.00009499
       4         -0.480367        2.000000        0.00568777        0.00200258        0.00116652        0.00082353        0.00005403        0.00014683        0.00024285        0.00006255        0.00015081
       5         -0.476156        2.000000        0.00703070        0.00114601        0.00084616        0.00256821        0.00018020        0.00008579        0.00015416        0.00015069        0.00011515
       6         -0.474826        2.000000        0.00907101        0.00279738        0.00088637        0.00193649        0.00018480        0.00012867        0.00016318        0.00009929        0.00024783
       7         -0.472773        2.000000        0.00808860        0.00361477        0.00077686        0.00126230        0.00012131        0.00018609        0.00010826        0.00006966        0.00026880
       8         -0.468060        2.000000        0.03009577        0.00583223        0.00096643        0.00911017        0.00089489        0.00033209        0.00030865        0.00029701        0.00067484
       9         -0.466609        2.000000        0.48051607        0.13484931        0.01397155        0.07827786        0.00998931        0.00692728        0.00820358        0.00362621        0.01700547
      10         -0.462415        2.000000        0.49287203        0.12925975        0.00967742        0.09625583        0.01200060        0.00584785        0.00904650        0.00481780        0.01516101
      11         -0.461125        2.000000        0.49578909        0.06152371        0.01185363        0.16400798        0.01905624        0.00282664        0.00799457        0.00846339        0.00712076
      12         -0.460334        2.000000        0.49744566        0.08590959        0.01242680        0.14266639        0.01745638        0.00469396        0.00769055        0.00604331        0.01129234
      13         -0.457396        2.000000        0.49804436        0.10012111        0.01002899        0.13078303        0.01561073        0.00451276        0.00727677        0.00643630        0.01343179
      14         -0.454887        2.000000        0.49860305        0.16253897        0.00858600        0.07312886        0.00907113        0.00814773        0.00722334        0.00345166        0.01944365
      15         -0.440262        2.000000        0.00158120        0.00124744        0.00049005        0.00055483        0.00013512        0.00022371        0.00012866        0.00013326        0.00011797
      16         -0.436293        2.000000        0.00220401        0.00063802        0.00048147        0.00177789        0.00015795        0.00014120        0.00015650        0.00022308        0.00021404
      17         -0.435359        2.000000        0.00198758        0.00070221        0.00038016        0.00164654        0.00016576        0.00014200        0.00012903        0.00021968        0.00017508
      18         -0.432392        2.000000        0.00395215        0.00205571        0.00034933        0.00172104        0.00031549        0.00019856        0.00014231        0.00017995        0.00031185
      19         -0.431070        2.000000        0.00611233        0.00331121        0.00044319        0.00233035        0.00053994        0.00026652        0.00018209        0.00025834        0.00046802
      20         -0.429810        2.000000        0.00432356        0.00195421        0.00053725        0.00230915        0.00033766        0.00037103        0.00017475        0.00023224        0.00041318
      21         -0.429254        2.000000        0.00213382        0.00120373        0.00048725        0.00105689        0.00025293        0.00018479        0.00016251        0.00026618        0.00017893
      22         -0.425206        2.000000        0.10246996        0.03886708        0.00066307        0.04652545        0.00918432        0.00222613        0.00033163        0.00346048        0.00846957
      23         -0.424198        2.000000        0.30241421        0.10797704        0.00169205        0.13675139        0.02725487        0.00792189        0.00058500        0.00990264        0.02494556
      24         -0.421661        2.000000        0.37887012        0.16417096        0.00149932        0.14980511        0.03059003        0.01294288        0.00058937        0.01154299        0.03196814
      25         -0.420230        2.000000        0.02781039        0.01042726        0.00053793        0.01294692        0.00210626        0.00083790        0.00013923        0.00083949        0.00271264
      26         -0.419010        2.000000        0.37371955        0.17034303        0.00174733        0.13163951        0.02867323        0.01248986        0.00078406        0.00921997        0.03775528
      27         -0.418274        2.000000        0.40278378        0.19624360        0.00157365        0.10468819        0.02896659        0.01647204        0.00068299        0.00806194        0.05321568
      28         -0.417290        2.000000        0.39874671        0.16302229        0.00124562        0.14433018        0.03784069        0.01338552        0.00129404        0.00926654        0.04085448
      29         -0.416206        2.000000        0.40488499        0.08772317        0.00087216        0.20516629        0.06427831        0.00619997        0.00079227        0.01717390        0.03182035
      30         -0.414179        2.000000        0.40227373        0.12853534        0.00123173        0.17676148        0.04893212        0.00905870        0.00128757        0.01436608        0.03257297
      31         -0.413052        2.000000        0.40975011        0.19226744        0.00126566        0.09253252        0.01860326        0.01630985        0.00083493        0.00649455        0.07861737
      32         -0.412094        2.000000        0.40609245        0.08225653        0.00172690        0.18935027        0.07625639        0.00623314        0.00139059        0.01720013        0.03094747
      33         -0.377616        2.000000        0.00546054        0.00232752        0.00200983        0.00633646        0.00022829        0.00019344        0.00049224        0.00055547        0.00005267
      34         -0.375039        2.000000        0.00604022        0.00290373        0.00259182        0.00698486        0.00014553        0.00041365        0.00070359        0.00056746        0.00010176
      35         -0.372868        2.000000        0.01544616        0.02012910        0.00719492        0.00135971        0.00030126        0.00186358        0.00152932        0.00047712        0.00067224
      36         -0.366757        2.000000        0.01351996        0.00720285        0.00576812        0.00999334        0.00088656        0.00123723        0.00117757        0.00148064        0.00044350
      37         -0.364560        2.000000        0.02325951        0.00865546        0.00705961        0.02064791        0.00143445        0.00139227        0.00175085        0.00265543        0.00050790
      38         -0.363909        2.000000        0.27547023        0.13961321        0.04129220        0.21742612        0.00930026        0.01725790        0.01252199        0.02133135        0.00647343
      39         -0.362399        2.000000        0.05109515        0.03958926        0.01167518        0.02335209        0.00178986        0.00505025        0.00308230        0.00332564        0.00217751
      40         -0.361604        2.000000        0.15201866        0.14331427        0.02713944        0.05118242        0.00309153        0.01500220        0.00820046        0.00696615        0.00620662
      41         -0.361087        2.000000        0.07334913        0.04028407        0.01245064        0.05835560        0.00264484        0.00484883        0.00384112        0.00580237        0.00191660
      42         -0.360851        2.000000        0.12919277        0.05347100        0.02132415        0.11630235        0.00475708        0.00697093        0.00577442        0.01277320        0.00227014
      43         -0.360023        2.000000        0.15022754        0.12925528        0.01944564        0.07826507        0.00430972        0.01317449        0.00730465        0.00756054        0.00497141
      44         -0.357966        2.000000        0.02261907        0.01065181        0.00678597        0.01167614        0.00147918        0.00190826        0.00158815        0.00228956        0.00169666
      45         -0.354578        2.000000        0.28878237        0.10920176        0.05848431        0.15429439        0.03646759        0.01494566        0.01729020        0.02519499        0.01601839
      46         -0.352462        2.000000        0.28756441        0.15472200        0.06169866        0.11014480        0.01802382        0.02422591        0.01714061        0.01706493        0.03152143
      47         -0.351536        2.000000        0.28856832        0.12868565        0.07648360        0.13393762        0.02431419        0.01979358        0.01686007        0.02274841        0.02756048
      48         -0.351019        2.000000        0.29966716        0.14670391        0.06215854        0.12916846        0.02342959        0.02182373        0.01985035        0.01816033        0.03178776
      49         -0.348666        2.000000        0.29954907        0.13255981        0.06092504        0.14730355        0.03033725        0.01601663        0.02138483        0.02034259        0.02707534
      50         -0.346529        2.000000        0.29227841        0.13515431        0.05887549        0.13868363        0.02905150        0.01792385        0.02158935        0.01711349        0.02870744
      51         -0.343592        2.000000        0.05805905        0.01937678        0.06826102        0.02530587        0.00549766        0.00367122        0.00712504        0.00480862        0.00374443
      52         -0.337088        2.000000        0.02997660        0.00549289        0.07360642        0.00497223        0.00142399        0.00356355        0.00549548        0.00334703        0.00156345
      53         -0.335536        2.000000        0.03390041        0.00975358        0.06703535        0.00619970        0.00133154        0.00461659        0.00548549        0.00247868        0.00220479
      54         -0.333391        2.000000        0.02134603        0.00368516        0.06188766        0.00352701        0.00098998        0.00214661        0.00449267        0.00177855        0.00114137
      55         -0.331151        2.000000        0.07160812        0.01094056        0.16291013        0.01045103        0.00387288        0.00387825        0.00850842        0.00887399        0.00269919
      56         -0.329276        2.000000        0.08084415        0.01904488        0.16152279        0.00953337        0.00212442        0.01060074        0.00976876        0.00366749        0.00542210
      57         -0.325191        2.000000        0.05384149        0.00803854        0.10829444        0.00981964        0.00268119        0.00445545        0.00720221        0.00616130        0.00258330
      58         -0.322125        2.000000        0.16269453        0.03219248        0.23327854        0.03441312        0.01022908        0.01232732        0.01579782        0.01432324        0.00699374
      59         -0.319873        2.000000        0.15716620        0.04291751        0.20694209        0.02324036        0.00606277        0.01482965        0.01756156        0.00826413        0.01160156
      60         -0.318682        2.000000        0.15433607        0.02324140        0.21423938        0.04614420        0.01116417        0.00598181        0.01644308        0.01904795        0.00555605
      61         -0.317063        2.000000        0.14841813        0.02295171        0.22248792        0.03575261        0.00931087        0.00952867        0.01513036        0.01269065        0.00635721
      62         -0.315821        2.000000        0.16392465        0.03962944        0.23098742        0.02707604        0.00670266        0.01467188        0.01676398        0.01122050        0.01105127
      63         -0.313641        2.000000        0.16560751        0.03310926        0.24805506        0.03376274        0.00786880        0.01514513        0.01819147        0.01087280        0.00953143
      64         -0.311350        2.000000        0.09498292        0.00645856        0.28168930        0.00851550        0.00136575        0.00231044        0.00759656        0.00202764        0.00143074
      65         -0.242956        2.000000        0.00530639        0.10314629        0.36177282        0.18131813        0.00380693        0.00452021        0.01740248        0.00529809        0.00376944
      66         -0.241762        2.000000        0.00426110        0.09715690        0.37174266        0.17732275        0.00216346        0.00335350        0.01734270        0.00423784        0.00366576
      67         -0.238649        2.000000        0.00477245        0.21015030        0.35535470        0.05078830        0.00360528        0.00460374        0.01762264        0.00207327        0.00215741
      68         -0.236419        2.000000        0.01161103        0.06762722        0.23569333        0.10657215        0.00758217        0.00728212        0.00806771        0.00390772        0.01346818
      69         -0.235396        2.000000        0.00821007        0.05637062        0.19624223        0.06187914        0.00820501        0.00446633        0.00950638        0.00308957        0.00615287
      70         -0.233466        2.000000        0.00705337        0.05548758        0.24369162        0.10826576        0.00873383        0.00258426        0.01174476        0.00400841        0.00605941
      71         -0.232573        2.000000        0.01095080        0.05517139        0.19558661        0.10151646        0.00965205        0.00376957        0.00997083        0.00348864        0.00830628
      72         -0.230282        2.000000        0.01342760        0.10200770        0.27158894        0.13532917        0.00758844        0.00931610        0.01145509        0.00196106        0.01852980
      73         -0.228817        2.000000        0.01088115        0.07957727        0.25497477        0.10889678        0.01178168        0.00353233        0.00797580        0.00478605        0.00921774
      74         -0.227816        2.000000        0.01074958        0.09581294        0.24049463        0.08987756        0.00803540        0.00556673        0.01161427        0.00274498        0.01323698
      75         -0.226444        2.000000        0.00852135        0.06952541        0.20882842        0.15390147        0.00977551        0.00699917        0.02001307        0.00163560        0.00903217
      76         -0.226120        2.000000        0.01552743        0.09721550        0.30435437        0.17585336        0.01804270        0.00774929        0.01513637        0.00300161        0.01224613
      77         -0.224592        2.000000        0.01301157        0.11977859        0.23967465        0.14864525        0.01724401        0.00614932        0.03171383        0.00424623        0.00477480
      78         -0.221553        2.000000        0.01505947        0.20078059        0.13340438        0.21808087        0.01585524        0.00953903        0.02440175        0.00380243        0.01560586
      79         -0.221225        2.000000        0.00821391        0.06709887        0.14364448        0.06092161        0.00524420        0.00383569        0.02010649        0.00319647        0.00792533
      80         -0.220490        2.000000        0.00869783        0.22575569        0.20417860        0.08887619        0.00901182        0.00389244        0.03365698        0.01105048        0.00921051
      81         -0.219869        2.000000        0.01311042        0.09489162        0.14691819        0.10480099        0.01060246        0.00542024        0.02768772        0.00371586        0.00707576
      82         -0.219130        2.000000        0.01721613        0.16341918        0.22537739        0.18527149        0.01396359        0.01036226        0.04480218        0.00891163        0.01139903
      83         -0.218911        2.000000        0.01428585        0.09063416        0.15585421        0.09683034        0.01123085        0.00197140        0.02055012        0.00456192        0.00777866
      84         -0.218316        2.000000        0.01668286        0.10294311        0.17605391        0.08919246        0.01185585        0.00849396        0.03253513        0.00396121        0.00992278
      85         -0.217669        2.000000        0.01716555        0.04462517        0.11326641        0.09703873        0.01333904        0.00196913        0.01430638        0.00145489        0.00691546
      86         -0.217223        2.000000        0.01142455        0.11611506        0.16740151        0.13679979        0.00950714        0.00743996        0.04302112        0.00676675        0.01014130
      87         -0.215953        2.000000        0.01194152        0.09503850        0.15341904        0.11401161        0.01275342        0.00247859        0.04119296        0.00602027        0.00791168
      88         -0.215669        2.000000        0.02328438        0.19480068        0.15327862        0.13956216        0.01762790        0.00399026        0.02656413        0.00730928        0.01577899
      89         -0.214879        2.000000        0.01143965        0.16424689        0.19266004        0.12825922        0.00845504        0.00695744        0.03548142        0.01223896        0.01269594
      90         -0.213964        2.000000        0.02471735        0.19964192        0.19323232        0.06301180        0.01167051        0.00377800        0.02182692        0.00428510        0.02246141
      91         -0.213210        2.000000        0.01590243        0.12384321        0.16830696        0.09364728        0.00867966        0.00495608        0.03711529        0.00570620        0.01196817
      92         -0.212803        2.000000        0.02472481        0.10755323        0.19138769        0.12659224        0.01246390        0.00806458        0.03461595        0.00381679        0.01835610
      93         -0.211348        2.000000        0.01082572        0.06565209        0.18652980        0.05495886        0.00715937        0.00595429        0.05589427        0.00408748        0.00940993
      94         -0.210996        2.000000        0.01402818        0.10507713        0.12143238        0.10844791        0.01364448        0.00485325        0.02219905        0.00405071        0.00931767
      95         -0.210630        2.000000        0.01421011        0.10674254        0.18558145        0.12470718        0.01805434        0.00709569        0.03279907        0.00711737        0.01070294
      96         -0.209925        2.000000        0.01671457        0.10610885        0.19260372        0.10970170        0.01180286        0.00594284        0.03699104        0.01087477        0.01567199
      97         -0.209620        2.000000        0.01720344        0.11795039        0.13572974        0.10813938        0.01771128        0.00316743        0.01346779        0.00381903        0.01360391
      98         -0.208750        2.000000        0.01163135        0.10675500        0.17474490        0.08586045        0.00910508        0.00775049        0.04045792        0.00453886        0.01381319
      99         -0.208224        2.000000        0.02036139        0.11932859        0.15328229        0.11083853        0.01378374        0.00408665        0.03442572        0.00355803        0.01531361
     100         -0.207133        2.000000        0.01620557        0.09901559        0.15064617        0.11037867        0.01111469        0.00546024        0.02082097        0.00269967        0.01909029
     101         -0.206725        2.000000        0.01163314        0.06748561        0.13930520        0.04480009        0.00784299        0.00432497        0.02699163        0.00454029        0.01052450
     102         -0.205383        2.000000        0.01378261        0.06563134        0.12386827        0.05839539        0.00673585        0.00378132        0.02735749        0.00231409        0.01377783
     103         -0.204810        2.000000        0.00951651        0.06711120        0.20374620        0.06171690        0.00822630        0.00585272        0.06094593        0.00642147        0.00929325
     104         -0.203496        2.000000        0.00533498        0.05821375        0.14540905        0.08204681        0.00756079        0.00535014        0.03612864        0.00419127        0.00868728
     105         -0.203235        2.000000        0.01072184        0.03552355        0.17789926        0.08094835        0.00996186        0.00622900        0.04851436        0.00327339        0.00865257
     106         -0.202410        2.000000        0.01058759        0.05835834        0.12953966        0.04938479        0.00726365        0.00309384        0.04235875        0.00441016        0.01016002
     107         -0.200863        2.000000        0.00944469        0.06300805        0.18558634        0.08259670        0.00821804        0.00924020        0.03565823        0.00557204        0.01178989
     108         -0.200399        2.000000        0.01337536        0.10300188        0.14688250        0.12084759        0.01431530        0.00667559        0.02865623        0.00396431        0.01675670
     109         -0.199784        2.000000        0.00541090        0.09016054        0.14790894        0.05790155        0.00939092        0.01002234        0.04696885        0.00469949        0.00589610
     110         -0.199084        2.000000        0.00577821        0.04054694        0.14264903        0.04234514        0.00580352        0.00361514        0.04712654        0.00343322        0.00619937
     111         -0.199018        2.000000        0.00275435        0.02453140        0.09945708        0.03285797        0.00352203        0.00399029        0.02639904        0.00254073        0.00417441
     112         -0.198257        2.000000        0.00930413        0.06842806        0.14792601        0.06336194        0.00984270        0.00791760        0.02851365        0.00448543        0.01044947
     113         -0.197233        2.000000        0.00789453        0.09037621        0.20362018        0.09010253        0.01498149        0.00836740        0.04638586        0.00595176        0.01183746
     114         -0.196847        2.000000        0.00539429        0.05568240        0.08269171        0.04682281        0.00675007        0.00349292        0.01832603        0.00299683        0.00658100
     115         -0.196129        2.000000        0.00816258        0.07177279        0.16988064        0.10186111        0.01379322        0.00782823        0.03105506        0.00656761        0.01147836
     116         -0.195255        2.000000        0.00432156        0.02641322        0.08147291        0.03450077        0.00471209        0.00294874        0.02207990        0.00371138        0.00443289
     117         -0.194074        2.000000        0.00604097        0.08753603        0.11013776        0.02843667        0.00911864        0.00365602        0.02701609        0.00594977        0.00666054
     118         -0.193409        2.000000        0.00845209        0.04570067        0.20374337        0.07498544        0.00877334        0.00889573        0.06491092        0.00611301        0.00647056
     119         -0.192490        2.000000        0.00672071        0.08518075        0.12381960        0.02548062        0.01213186        0.00347242        0.02867653        0.00695144        0.00593014
     120         -0.192198        2.000000        0.00496919        0.05165814        0.16840252        0.06200919        0.00963755        0.00845856        0.03988836        0.00630749        0.00626152
     121         -0.190613        2.000000        0.00671013        0.04132432        0.13588246        0.07729382        0.00725233        0.00746487        0.03264413        0.00542380        0.00888639
     122         -0.189912        2.000000        0.00592515        0.08837581        0.15371985        0.05602561        0.01185574        0.00659568        0.03453119        0.00563160        0.00975843
     123         -0.189708        2.000000        0.00451831        0.05478835        0.13053921        0.02943880        0.01059930        0.00441388        0.03012697        0.00643325        0.00276270
     124         -0.188393        2.000000        0.00566302        0.04264116        0.13566410        0.02597058        0.00585745        0.00423102        0.03592154        0.00355154        0.00715382
     125         -0.187290        2.000000        0.00299451        0.01802918        0.07382473        0.02193594        0.00296107        0.00368345        0.02157129        0.00290702        0.00300064
     126         -0.185041        2.000000        0.00303993        0.05228470        0.09343747        0.02082063        0.00797652        0.00384193        0.02223037        0.00473082        0.00192194
     127         -0.183614        2.000000        0.00326270        0.01823883        0.07995747        0.03240575        0.00491413        0.00346560        0.01779628        0.00293859        0.00320516
     128         -0.182709        2.000000        0.00377705        0.03405186        0.09538421        0.02444549        0.00538401        0.00314519        0.02746216        0.00364610        0.00417368
     129         -0.180905        2.000000        0.00218013        0.01758352        0.06960530        0.02913611        0.00434019        0.00319688        0.01764837        0.00285096        0.00304140
     130         -0.178187        2.000000        0.00236330        0.01470305        0.07710120        0.03105641        0.00447953        0.00326610        0.02209530        0.00245552        0.00195783
     131         -0.177078        2.000000        0.00233386        0.02159070        0.04983946        0.01253161        0.00234788        0.00182402        0.01303133        0.00183921        0.00273854
     132         -0.175518        2.000000        0.00383642        0.01723687        0.10156867        0.01472653        0.00272695        0.00407832        0.03264763        0.00222032        0.00419871
     133         -0.173218        2.000000        0.00097752        0.01184616        0.04590952        0.00923228        0.00133489        0.00152253        0.01566284        0.00175608        0.00112886
     134         -0.172528        2.000000        0.00080997        0.01343589        0.02899044        0.00873818        0.00179886        0.00157610        0.00516575        0.00185494        0.00085193
     135         -0.171932        2.000000        0.00050701        0.00758141        0.02539004        0.00666434        0.00125113        0.00150391        0.00561389        0.00111239        0.00056215
     136         -0.169437        2.000000        0.00178516        0.02885190        0.02888417        0.00877375        0.00091517        0.00147882        0.00905462        0.00110075        0.00204015
     137         -0.168500        2.000000        0.00122759        0.02245823        0.03918054        0.09886681        0.00268132        0.00174112        0.01356449        0.00376687        0.00101980
     138         -0.167496        2.000000        0.00084153        0.03547488        0.03613955        0.03928685        0.00210243        0.00231743        0.00839817        0.00235589        0.00179599
     139         -0.165305        2.000000        0.00201279        0.49020170        0.02763667        0.32333865        0.00989249        0.01666167        0.00396570        0.01343983        0.00997728
     140         -0.163959        2.000000        0.00194696        0.11214550        0.03496025        0.60911926        0.01068794        0.00599496        0.00891254        0.02362024        0.00593239
     141         -0.161466        2.000000        0.00231841        0.62661227        0.02300658        0.21402501        0.00566357        0.02110781        0.00434658        0.01229260        0.01164407
     142         -0.151245        2.000000        0.00172275        0.06972059        0.01124301        0.75303645        0.07781457        0.00312206        0.00208406        0.02637437        0.00889584
     143         -0.146951        2.000000        0.00130026        0.52691717        0.01419349        0.29291475        0.03083095        0.01549646        0.00190937        0.01044364        0.05830945
     144         -0.144567        2.000000        0.00107973        0.45238180        0.02205705        0.34592299        0.03431379        0.01659991        0.00368453        0.01389963        0.05143943