# Projected DOS for atomic kind Ge at iteration step i = 0, E(Fermi) =    -0.077689 a.u.
#     MO Eigenvalue [a.u.]      Occupation                 s                py                pz                px               d-2               d-1                d0               d+1               d+2
       1         -0.499992        2.000000        0.75439695        0.00493650        0.02059320        0.00472801        0.00065483        0.00048059        0.00799459        0.00061454        0.00083572
       2         -0.487181        2.000000        0.01025835        0.00014342        0.00292856        0.00028749        0.00003408        0.00001402        0.00059998        0.00004356        0.00002753
       3         -0.481417        2.000000        0.65391826        0.06258044        0.01277880        0.05392879        0.00513457        0.00321881        0.00317297        0.00331506        0.00644307
       4         -0.480304        2.000000        0.65466799        0.05268336        0.01419943        0.06108671        0.00565455        0.00286504        0.00277399        0.00317199        0.00512641
       5         -0.475880        2.000000        0.65075034        0.03700627        0.00928951        0.08021420        0.00785582        0.00204272        0.00347127        0.00458418        0.00397814
       6         -0.474095        2.000000        0.60211198        0.04611830        0.00862064        0.06120511        0.00586903        0.00230059        0.00289774        0.00350452        0.00458926
       7         -0.472438        2.000000        0.61807663        0.09832703        0.00848116        0.01233338        0.00206674        0.00505320        0.00329665        0.00093660        0.00994565
       8         -0.471041        2.000000        0.07988769        0.01084248        0.00258868        0.00282324        0.00031714        0.00067782        0.00062306        0.00023495        0.00135861
       9         -0.467836        2.000000        0.52114928        0.03195108        0.00634954        0.06679808        0.00625994        0.00169328        0.00249688        0.00381261        0.00318689
      10         -0.466290        2.000000        0.11261837        0.00646413        0.00331898        0.01505622        0.00151892        0.00038120        0.00086518        0.00075650        0.00058678
      11         -0.464918        2.000000        0.03247395        0.00173761        0.00190130        0.00366356        0.00046733        0.00014420        0.00038248        0.00035108        0.00026485
      12         -0.463224        2.000000        0.02939698        0.00232884        0.00207203        0.00272794        0.00032614        0.00017449        0.00043421        0.00022548        0.00032538
      13         -0.459871        2.000000        0.00795081        0.00049575        0.00132520        0.00067015        0.00009176        0.00009777        0.00021188        0.00005622        0.00011297
      14         -0.457680        2.000000        0.00355186        0.00053738        0.00081975        0.00015545        0.00002931        0.00004806        0.00013648        0.00002815        0.00008690
      15         -0.439234        2.000000        0.54707454        0.13684097        0.00249139        0.07952701        0.01286106        0.00891023        0.00079273        0.00604007        0.01648792
      16         -0.437019        2.000000        0.54449176        0.06386290        0.00221707        0.15245380        0.01912742        0.00569714        0.00072478        0.00900702        0.01325680
      17         -0.432863        2.000000        0.54816307        0.06670444        0.00153994        0.13711975        0.02239141        0.00452157        0.00047662        0.01066904        0.01301131
      18         -0.432144        2.000000        0.53353212        0.10712025        0.00286134        0.10714182        0.01497064        0.00780698        0.00048079        0.00814590        0.01344831
      19         -0.430446        2.000000        0.45400526        0.11342461        0.00095198        0.06976806        0.01126818        0.00639266        0.00038944        0.00464594        0.01383273
      20         -0.428952        2.000000        0.55268733        0.11031395        0.00118018        0.08153870        0.01388909        0.00936785        0.00054341        0.00500787        0.02699758
      21         -0.428278        2.000000        0.15747144        0.03897269        0.00122480        0.02367336        0.00327304        0.00213345        0.00019340        0.00204488        0.00618577
      22         -0.427337        2.000000        0.55458839        0.11201547        0.00225285        0.08205126        0.01635842        0.00770163        0.00053139        0.00568982        0.02423441
      23         -0.426429        2.000000        0.44478082        0.09194513        0.00165288        0.08785161        0.01273486        0.00516501        0.00032002        0.00521363        0.01443661
      24         -0.424699        2.000000        0.05010251        0.00805015        0.00027037        0.01190519        0.00154893        0.00052039        0.00006042        0.00089048        0.00134658
      25         -0.422587        2.000000        0.01352554        0.00218263        0.00025369        0.00259227        0.00052724        0.00015434        0.00003779        0.00023710        0.00044554
      26         -0.421453        2.000000        0.00758163        0.00172335        0.00036231        0.00122549        0.00020656        0.00014938        0.00004182        0.00008490        0.00030083
      27         -0.420192        2.000000        0.00850849        0.00143698        0.00047309        0.00206237        0.00028216        0.00011870        0.00004522        0.00012503        0.00030099
      28         -0.418794        2.000000        0.04500645        0.00479963        0.00050588        0.01184559        0.00216455        0.00031745        0.00006439        0.00070473        0.00091709
      29         -0.418388        2.000000        0.29601374        0.03468252        0.00189934        0.06927600        0.01438962        0.00221552        0.00033383        0.00500646        0.00644666
      30         -0.417698        2.000000        0.21731634        0.02365828        0.00139940        0.05160856        0.00998336        0.00176070        0.00021898        0.00377901        0.00483897
      31         -0.416507        2.000000        0.00390005        0.00098733        0.00044402        0.00084603        0.00013971        0.00010780        0.00005192        0.00007615        0.00014026
      32         -0.412556        2.000000        0.00177780        0.00048494        0.00047019        0.00062788        0.00006260        0.00004156        0.00004602        0.00004371        0.00004920
      33         -0.376376        2.000000        0.38007189        0.09123310        0.04317856        0.18895999        0.00896792        0.00744187        0.00631229        0.01749095        0.00625349
      34         -0.374004        2.000000        0.37254495        0.08650015        0.03667912        0.20235251        0.00944817        0.00704538        0.00793318        0.01641632        0.00417704
      35         -0.371824        2.000000        0.35486369        0.21026227        0.04030007        0.05988927        0.00419150        0.01692762        0.00663905        0.00460560        0.01097363
      36         -0.367226        2.000000        0.32509574        0.07502295        0.05584082        0.09033110        0.01410170        0.00984318        0.00609709        0.01030919        0.00848149
      37         -0.364858        2.000000        0.12563181        0.03209947        0.01639110        0.03825259        0.00540982        0.00337727        0.00250016        0.00417853        0.00371216
      38         -0.364543        2.000000        0.29925510        0.08163632        0.04104655        0.09470064        0.01325715        0.00771899        0.00644731        0.00997654        0.01008221
      39         -0.363535        2.000000        0.05183161        0.01559872        0.00768257        0.01815849        0.00133156        0.00158413        0.00123511        0.00184296        0.00186678
      40         -0.363213        2.000000        0.11453741        0.02881557        0.01874619        0.03790488        0.00391368        0.00387582        0.00198327        0.00379343        0.00362664
      41         -0.360811        2.000000        0.29317804        0.10604524        0.04401989        0.06646353        0.00744901        0.01176876        0.00681754        0.00859303        0.01167615
      42         -0.360481        2.000000        0.38253391        0.12975702        0.04462269        0.10638152        0.01175036        0.01159868        0.01151617        0.00977441        0.01910909
      43         -0.357298        2.000000        0.16482332        0.04894116        0.02051974        0.04721097        0.00672202        0.00431429        0.00456546        0.00486945        0.00539678
      44         -0.357010        2.000000        0.33399497        0.09117145        0.03208479        0.10892349        0.01588061        0.00722072        0.01062420        0.00986721        0.01009179
      45         -0.356080        2.000000        0.24250264        0.07098407        0.03146570        0.06786126        0.00777815        0.00694929        0.00671687        0.00668255        0.01159598
      46         -0.355615        2.000000        0.11487944        0.03092575        0.01456964        0.03509070        0.00400513        0.00344667        0.00309805        0.00326113        0.00507031
      47         -0.353849        2.000000        0.00866001        0.00260117        0.00092802        0.00297535        0.00040557        0.00027401        0.00015871        0.00022315        0.00030601
      48         -0.352925        2.000000        0.00912663        0.00313154        0.00256993        0.00258404        0.00027428        0.00031512        0.00021846        0.00023447        0.00039361
      49         -0.351738        2.000000        0.04158061        0.01383810        0.00633400        0.01143270        0.00131967        0.00107208        0.00099440        0.00108210        0.00183448
      50         -0.350587        2.000000        0.00467202        0.00121446        0.00196443        0.00173532        0.00016764        0.00013887        0.00019879        0.00014934        0.00013086
      51         -0.340729        2.000000        0.21746374        0.02148949        0.22995363        0.03279626        0.00559386        0.00575471        0.00854389        0.00794097        0.00333646
      52         -0.335789        2.000000        0.18584511        0.03800149        0.19553734        0.01232076        0.00148312        0.00901537        0.00960644        0.00177756        0.00699848
      53         -0.333754        2.000000        0.15839579        0.01708339        0.19357570        0.02157815        0.00412057        0.00294146        0.00937096        0.00520804        0.00247312
      54         -0.332529        2.000000        0.16731869        0.01853879        0.16778292        0.02521669        0.00501733        0.00360125        0.00912181        0.00653579        0.00258759
      55         -0.330813        2.000000        0.18179924        0.01754658        0.16808124        0.03421296        0.00523509        0.00444609        0.01192217        0.00662444        0.00312671
      56         -0.328875        2.000000        0.11452808        0.01136617        0.09783519        0.02267420        0.00431283        0.00189961        0.00751062        0.00427797        0.00198343
      57         -0.327988        2.000000        0.19096387        0.03402731        0.17340974        0.01754142        0.00212629        0.00677995        0.01114748        0.00341897        0.00579730
      58         -0.322343        2.000000        0.12049494        0.01972527        0.10320360        0.01614276        0.00253963        0.00413315        0.00707612        0.00285044        0.00292599
      59         -0.321695        2.000000        0.09458128        0.01411195        0.06680237        0.01840372        0.00282212        0.00209852        0.00565780        0.00280784        0.00225279
      60         -0.319805        2.000000        0.09232833        0.00865681        0.09270861        0.01790684        0.00282336        0.00121315        0.00443480        0.00274687        0.00115412
      61         -0.318765        2.000000        0.10711852        0.01944335        0.08103044        0.01429125        0.00218598        0.00333959        0.00575642        0.00238523        0.00328161
      62         -0.318352        2.000000        0.09210044        0.01020007        0.07406821        0.01795692        0.00289328        0.00172541        0.00518635        0.00274289        0.00157582
      63         -0.315861        2.000000        0.11624423        0.02099074        0.09706812        0.01035771        0.00171926        0.00356764        0.00635787        0.00260708        0.00339114
      64         -0.310295        2.000000        0.07547547        0.00562259        0.10545082        0.00675515        0.00116216        0.00097032        0.00401023        0.00127886        0.00074247
      65         -0.244293        2.000000        0.00185153        0.00399290        0.00848702        0.00456975        0.00019418        0.00027101        0.00085419        0.00033665        0.00029642
      66         -0.243824        2.000000        0.00163652        0.00569796        0.01535913        0.00870916        0.00019570        0.00029314        0.00077653        0.00029860        0.00038887
      67         -0.240407        2.000000        0.00191466        0.00395288        0.01254242        0.00411728        0.00028103        0.00053777        0.00136672        0.00020768        0.00034077
      68         -0.238393        2.000000        0.00706036        0.02263764        0.08016598        0.04245186        0.00159716        0.00084588        0.00445791        0.00077910        0.00252586
      69         -0.236126        2.000000        0.00756163        0.05121687        0.12565551        0.06390165        0.00268722        0.00099512        0.00499826        0.00061796        0.00172919
      70         -0.234642        2.000000        0.00613043        0.05547229        0.09196193        0.04355257        0.00176760        0.00089128        0.00278640        0.00051046        0.00196064
      71         -0.233185        2.000000        0.00446074        0.02054859        0.08248637        0.04332885        0.00083173        0.00048339        0.00296341        0.00048535        0.00155063
      72         -0.231405        2.000000        0.00684468        0.07514320        0.22827158        0.11950688        0.00130092        0.00087141        0.00702906        0.00133240        0.00252250
      73         -0.230462        2.000000        0.00430496        0.04871496        0.18347834        0.08081521        0.00191052        0.00082842        0.00719022        0.00129863        0.00064588
      74         -0.228770        2.000000        0.00359102        0.01897358        0.06651658        0.03559955        0.00104296        0.00054418        0.00225620        0.00072347        0.00139999
      75         -0.228459        2.000000        0.00428496        0.11741257        0.19650521        0.05419480        0.00291208        0.00130114        0.00667564        0.00087773        0.00057371
      76         -0.227699        2.000000        0.00442540        0.02799305        0.08192219        0.03163506        0.00096875        0.00076825        0.00276845        0.00038141        0.00178561
      77         -0.225675        2.000000        0.00425612        0.02154043        0.06185407        0.01791438        0.00127029        0.00033464        0.00402914        0.00038517        0.00114845
      78         -0.223998        2.000000        0.00369490        0.01199337        0.03839684        0.01710814        0.00086528        0.00036005        0.00210114        0.00019992        0.00093192
      79         -0.223080        2.000000        0.00408909        0.03676170        0.10300406        0.03438979        0.00099587        0.00062257        0.00512663        0.00074217        0.00165727
      80         -0.222129        2.000000        0.00684479        0.04940745        0.17027289        0.05624060        0.00382231        0.00136155        0.01047398        0.00127287        0.00344336
      81         -0.221968        2.000000        0.00733502        0.03354337        0.11151609        0.04213629        0.00198505        0.00109483        0.00825862        0.00096969        0.00207106
      82         -0.220022        2.000000        0.00549386        0.04403344        0.10155326        0.02170091        0.00211100        0.00064944        0.00489544        0.00062798        0.00225370
      83         -0.219530        2.000000        0.00596865        0.02571327        0.07105652        0.02416901        0.00190203        0.00089678        0.00620725        0.00074119        0.00115882
      84         -0.218615        2.000000        0.00413541        0.01280715        0.06928383        0.02602062        0.00170572        0.00068013        0.00462238        0.00063302        0.00117500
      85         -0.218242        2.000000        0.00604644        0.04563840        0.14082293        0.05103433        0.00330880        0.00104831        0.00698663        0.00096108        0.00192031
      86         -0.217551        2.000000        0.00609194        0.03946891        0.11286997        0.06412712        0.00279971        0.00138543        0.00465317        0.00114026        0.00343440
      87         -0.217112        2.000000        0.00868002        0.04231967        0.13350193        0.06682667        0.00318969        0.00193229        0.00637177        0.00086907        0.00420044
      88         -0.216593        2.000000        0.00758367        0.06816585        0.19301049        0.05965733        0.00328449        0.00145171        0.00748630        0.00104433        0.00569937
      89         -0.215427        2.000000        0.01293013        0.10942313        0.24196353        0.07807723        0.00608345        0.00179072        0.01070878        0.00175159        0.00531250
      90         -0.214975        2.000000        0.00414733        0.03105376        0.08366957        0.02743874        0.00197027        0.00115691        0.00443138        0.00063828        0.00178623
      91         -0.213952        2.000000        0.00888917        0.05312995        0.18470606        0.07498997        0.00331584        0.00162770        0.01122942        0.00190680        0.00397124
      92         -0.213065        2.000000        0.00893869        0.04494837        0.15967187        0.04421745        0.00361066        0.00208425        0.01294501        0.00180763        0.00284992
      93         -0.212450        2.000000        0.01725802        0.05742552        0.19816515        0.13086172        0.00746280        0.00205541        0.00793691        0.00186405        0.00646320
      94         -0.211995        2.000000        0.00371107        0.02553309        0.07080450        0.01648726        0.00155607        0.00062056        0.00648058        0.00115994        0.00122158
      95         -0.210852        2.000000        0.00413109        0.02784521        0.07298957        0.03505074        0.00127815        0.00105288        0.00697694        0.00084818        0.00167654
      96         -0.210363        2.000000        0.00503000        0.06185220        0.12998398        0.03856554        0.00301123        0.00260795        0.00958915        0.00139857        0.00312083
      97         -0.209738        2.000000        0.00868500        0.06086576        0.28407387        0.10025340        0.00555093        0.00415510        0.01765653        0.00210014        0.00459695
      98         -0.208852        2.000000        0.00652417        0.06411165        0.19225225        0.04543366        0.00360277        0.00273525        0.01665074        0.00172739        0.00291108
      99         -0.207083        2.000000        0.01217048        0.04101749        0.10326845        0.06354098        0.00436499        0.00157441        0.01590009        0.00149324        0.00207425
     100         -0.206899        2.000000        0.01107315        0.12567168        0.20873318        0.11627192        0.00610976        0.00258204        0.01923746        0.00496489        0.00490977
     101         -0.206474        2.000000        0.01389312        0.12934493        0.13877995        0.09745442        0.00494639        0.00312026        0.01219957        0.00345099        0.00609620
     102         -0.205984        2.000000        0.01556918        0.07190508        0.18125285        0.07087190        0.00406645        0.00163789        0.01659530        0.00210926        0.00641204
     103         -0.204422        2.000000        0.02143338        0.12004213        0.20876209        0.14285591        0.01021694        0.00342123        0.01879218        0.00410591        0.00493293
     104         -0.203478        2.000000        0.00758136        0.05059941        0.13275344        0.04018640        0.00284185        0.00223548        0.01788610        0.00137636        0.00285059
     105         -0.203068        2.000000        0.01333490        0.07202863        0.10411767        0.08194572        0.00648718        0.00180224        0.01102335        0.00208524        0.00457365
     106         -0.202573        2.000000        0.00719010        0.09308019        0.13348171        0.12839968        0.00390147        0.00366581        0.01584412        0.00287866        0.00447974
     107         -0.202355        2.000000        0.00897100        0.09539127        0.10219940        0.09550728        0.00400652        0.00399463        0.01290148        0.00238683        0.00351938
     108         -0.200856        2.000000        0.02182737        0.10011657        0.16825976        0.12191334        0.00972685        0.00295558        0.01736099        0.00249737        0.00807862
     109         -0.200278        2.000000        0.00930891        0.04109491        0.14073017        0.07507002        0.00385374        0.00208101        0.01887723        0.00209846        0.00484398
     110         -0.199851        2.000000        0.02394409        0.07616634        0.12144114        0.08580435        0.00880251        0.00151524        0.01237154        0.00238364        0.00702292
     111         -0.198198        2.000000        0.01419803        0.11948625        0.10064779        0.07946483        0.00415719        0.00476413        0.00992532        0.00167806        0.00718587
     112         -0.197960        2.000000        0.02020288        0.11029745        0.20362644        0.15136036        0.00816924        0.00362062        0.02278337        0.00440540        0.00701354
     113         -0.197062        2.000000        0.02382006        0.08152748        0.20564906        0.11190376        0.00830225        0.00294797        0.01984993        0.00255961        0.00786666
     114         -0.196416        2.000000        0.01504991        0.10853788        0.19118035        0.08313459        0.00688904        0.00366209        0.02486356        0.00498875        0.00446566
     115         -0.195304        2.000000        0.02015898        0.08147590        0.16195743        0.07597388        0.00775683        0.00187038        0.01414024        0.00246783        0.00524230
     116         -0.194593        2.000000        0.00973159        0.08399295        0.16136587        0.06874467        0.00495518        0.00255599        0.02015327        0.00360170        0.00332312
     117         -0.194444        2.000000        0.01969439        0.10802710        0.17978137        0.07151066        0.00492694        0.00288962        0.02240635        0.00279186        0.00816916
     118         -0.193885        2.000000        0.02146976        0.16562112        0.21788519        0.06708042        0.00497925        0.00297322        0.03150559        0.00371231        0.01107926
     119         -0.193135        2.000000        0.02317664        0.12007869        0.16905173        0.11829333        0.00803179        0.00254275        0.01473743        0.00179824        0.01210886
     120         -0.191774        2.000000        0.03521035        0.15853178        0.21649715        0.11249373        0.01223133        0.00306256        0.02097695        0.00338994        0.01417142
     121         -0.191215        2.000000        0.00700438        0.07024116        0.21281320        0.09273494        0.00423484        0.00650198        0.01920089        0.00285119        0.00874583
     122         -0.190292        2.000000        0.01686720        0.13224411        0.16953054        0.14055612        0.01050797        0.00445444        0.02031849        0.00510111        0.00907353
     123         -0.189295        2.000000        0.01822032        0.10302181        0.25081342        0.14156504        0.00937724        0.00570820        0.02429142        0.00475969        0.00601524
     124         -0.188343        2.000000        0.00598259        0.05517817        0.17374806        0.07701335        0.00460537        0.00373535        0.02168357        0.00417316        0.00390584
     125         -0.186679        2.000000        0.02016968        0.16924419        0.19999984        0.18463852        0.01152188        0.00436230        0.01594039        0.00788515        0.01102187
     126         -0.184538        2.000000        0.01294026        0.14793906        0.18348203        0.15518722        0.01176590        0.00560563        0.02112621        0.00531757        0.01055031
     127         -0.183452        2.000000        0.01643078        0.18046081        0.21556849        0.14567395        0.00666846        0.00443732        0.03553802        0.00750422        0.01224028
     128         -0.182292        2.000000        0.00940850        0.03599416        0.21875197        0.07098953        0.00663610        0.00271824        0.04449306        0.00457863        0.00304787
     129         -0.179866        2.000000        0.01782538        0.10869811        0.23592685        0.16010711        0.01238009        0.00539049        0.02809773        0.00801790        0.01142925
     130         -0.178559        2.000000        0.01834058        0.11027289        0.22596617        0.09014203        0.00559632        0.00385542        0.04146471        0.00475031        0.01304485
     131         -0.177790        2.000000        0.01155436        0.17990352        0.22728966        0.07115910        0.01220823        0.00720947        0.03613691        0.00754907        0.00617757
     132         -0.175588        2.000000        0.01968185        0.16861367        0.27653971        0.08952406        0.00767634        0.00759828        0.03754683        0.00974526        0.01436384
     133         -0.174531        2.000000        0.01203314        0.10472190        0.23861311        0.16092460        0.00661742        0.00673983        0.04326122        0.00613597        0.01298608
     134         -0.173548        2.000000        0.01382978        0.12630009        0.26878852        0.14023145        0.01155121        0.00728333        0.03981310        0.00832993        0.01075673
     135         -0.172517        2.000000        0.01687386        0.13472102        0.24188489        0.16894583        0.01190678        0.00762287        0.02716528        0.00885808        0.01436129
     136         -0.169397        2.000000        0.01449258        0.10140872        0.20466070        0.06863493        0.01122095        0.00557283        0.04238251        0.00381419        0.00350134
     137         -0.168814        2.000000        0.00760380        0.07576057        0.09586482        0.03490485        0.00774694        0.00324786        0.01079388        0.00406716        0.00262755
     138         -0.168038        2.000000        0.01720894        0.12039632        0.24092238        0.11585128        0.01315924        0.00852246        0.03697242        0.00767922        0.00684607
     139         -0.167646        2.000000        0.00935593        0.08189327        0.14113424        0.03713648        0.00645100        0.00511802        0.02118042        0.00412657        0.00490805
     140         -0.166128        2.000000        0.00694200        0.05076261        0.08131393        0.02373666        0.00499396        0.00161383        0.00995109        0.00254307        0.00323509
     141         -0.163727        2.000000        0.00072289        0.00544424        0.01243636        0.00292649        0.00039529        0.00026185        0.00182144        0.00025071        0.00052387
     142         -0.154176        2.000000        0.00009733        0.00101032        0.00361158        0.00104255        0.00007430        0.00007183        0.00055193        0.00006472        0.00010041
     143         -0.149152        2.000000        0.00005295        0.00030224        0.00127925        0.00085314        0.00003504        0.00003382        0.00011195        0.00005854        0.00003056
     144         -0.147768        2.000000        0.00015745        0.00092072        0.00167924        0.00098175        0.00006715        0.00007424        0.00027285        0.00002955        0.00006636