# Projected DOS for atomic kind H at iteration step i = 0, E(Fermi) =    -0.079565 a.u.
#     MO Eigenvalue [a.u.]      Occupation                 s                py                pz                px
       1         -0.501251        2.000000        0.10765222        0.00153126        0.08257955        0.00115746
       2         -0.483653        2.000000        0.14746451        0.00100337        0.10958056        0.00056458
       3         -0.482794        2.000000        0.09839489        0.00539963        0.07904112        0.00699846
       4         -0.480732        2.000000        0.10073407        0.00755333        0.07458876        0.00506681
       5         -0.476352        2.000000        0.09919620        0.00410416        0.07460954        0.00882609
       6         -0.475104        2.000000        0.10311118        0.00696525        0.07403953        0.00535760
       7         -0.472746        2.000000        0.09765912        0.01163425        0.07102678        0.00407044
       8         -0.468148        2.000000        0.10627806        0.00368670        0.07128377        0.01122978
       9         -0.465952        2.000000        0.10757549        0.00797781        0.08404362        0.00473258
      10         -0.462379        2.000000        0.11125280        0.00770075        0.08255304        0.00525117
      11         -0.460884        2.000000        0.11147513        0.00411314        0.08280696        0.00870744
      12         -0.459799        2.000000        0.11020925        0.00555020        0.08154178        0.00757402
      13         -0.457220        2.000000        0.11251714        0.00638148        0.07977842        0.00716014
      14         -0.454684        2.000000        0.11433894        0.00993881        0.07764900        0.00421958
      15         -0.440479        2.000000        0.10346535        0.01017743        0.06212965        0.00572422
      16         -0.436430        2.000000        0.10760574        0.00629289        0.06041226        0.01221024
      17         -0.435553        2.000000        0.10989871        0.00692639        0.05791767        0.01265716
      18         -0.432662        2.000000        0.10566403        0.01023818        0.05849407        0.00699764
      19         -0.431075        2.000000        0.10939047        0.00922335        0.05968531        0.00857186
      20         -0.429835        2.000000        0.11644337        0.00673445        0.06380184        0.00437798
      21         -0.429181        2.000000        0.11035737        0.00727549        0.05898098        0.00959894
      22         -0.425169        2.000000        0.11131660        0.01151368        0.05828052        0.00584340
      23         -0.423894        2.000000        0.10561145        0.00612776        0.06134768        0.00726694
      24         -0.421266        2.000000        0.10775031        0.00954004        0.05615773        0.00726272
      25         -0.420734        2.000000        0.11768075        0.00441716        0.05856359        0.01202770
      26         -0.419163        2.000000        0.10916506        0.00781225        0.06018308        0.00522608
      27         -0.417737        2.000000        0.10877896        0.01058723        0.05526551        0.00450918
      28         -0.417358        2.000000        0.11451622        0.00889455        0.05575842        0.00537307
      29         -0.416074        2.000000        0.11331416        0.00387123        0.05587788        0.00857843
      30         -0.413963        2.000000        0.11333828        0.00478418        0.05566442        0.00897816
      31         -0.413046        2.000000        0.11257295        0.01015658        0.05464589        0.00364402
      32         -0.411567        2.000000        0.11591146        0.00508824        0.05540463        0.00863754
      33         -0.377601        2.000000        0.16041240        0.00411532        0.04339232        0.01641371
      34         -0.375300        2.000000        0.16545186        0.00581817        0.04405749        0.01107844
      35         -0.373071        2.000000        0.17459833        0.01710669        0.03800742        0.00437033
      36         -0.366392        2.000000        0.18609317        0.00609176        0.04372684        0.00602981
      37         -0.364410        2.000000        0.18345934        0.00903573        0.03606287        0.00888727
      38         -0.363557        2.000000        0.15399188        0.00608779        0.03811839        0.00880660
      39         -0.362755        2.000000        0.18257341        0.00610588        0.04086964        0.00660943
      40         -0.361536        2.000000        0.18031733        0.00646975        0.04114359        0.00590396
      41         -0.361375        2.000000        0.17198994        0.00816461        0.03892385        0.00488064
      42         -0.360687        2.000000        0.16388033        0.00544087        0.04064258        0.00732292
      43         -0.359931        2.000000        0.16760105        0.00610897        0.04740224        0.00533781
      44         -0.358357        2.000000        0.18299525        0.00700920        0.04124298        0.00384981
      45         -0.354492        2.000000        0.17876641        0.00538510        0.04249118        0.00596477
      46         -0.352624        2.000000        0.18174516        0.00629342        0.04111818        0.00600562
      47         -0.351445        2.000000        0.18319469        0.00557050        0.03738100        0.00635033
      48         -0.350956        2.000000        0.17979754        0.00546144        0.04001189        0.00506184
      49         -0.348668        2.000000        0.18216738        0.00498806        0.03771844        0.00513983
      50         -0.346756        2.000000        0.18076766        0.00511276        0.03851127        0.00400693
      51         -0.343833        2.000000        0.29348745        0.00416668        0.02732405        0.00370839
      52         -0.337042        2.000000        0.29985716        0.00474388        0.02458640        0.00297857
      53         -0.336497        2.000000        0.30825343        0.00203168        0.02507447        0.00397892
      54         -0.333356        2.000000        0.29728139        0.00477151        0.02701027        0.00413698
      55         -0.331311        2.000000        0.30670541        0.00199996        0.01871838        0.00375601
      56         -0.329853        2.000000        0.30372587        0.00579225        0.01911623        0.00152188
      57         -0.324867        2.000000        0.30093697        0.00232177        0.02025402        0.00431586
      58         -0.321911        2.000000        0.28519326        0.00224264        0.04324276        0.00329259
      59         -0.319668        2.000000        0.28334751        0.00279497        0.04793984        0.00179472
      60         -0.319162        2.000000        0.28283246        0.00190191        0.04335839        0.00336865
      61         -0.317056        2.000000        0.28185631        0.00298297        0.04821354        0.00279096
      62         -0.316969        2.000000        0.28712742        0.00231746        0.04553982        0.00205065
      63         -0.314012        2.000000        0.28163805        0.00216011        0.04571537        0.00184826
      64         -0.311564        2.000000        0.30545271        0.00114488        0.05321754        0.00130956
      65         -0.242657        2.000000        0.22573380        0.01174784        0.00239572        0.02916810
      66         -0.241633        2.000000        0.22818988        0.00968726        0.00115819        0.02719874
      67         -0.239094        2.000000        0.22068289        0.03591866        0.00161142        0.00489896
      68         -0.236318        2.000000        0.20263959        0.01779084        0.00505811        0.02783924
      69         -0.235573        2.000000        0.21046733        0.02704541        0.00375533        0.02046439
      70         -0.233292        2.000000        0.21336656        0.01319896        0.00325263        0.02537639
      71         -0.232390        2.000000        0.20427755        0.01289424        0.00335381        0.02578552
      72         -0.230422        2.000000        0.20152926        0.02294876        0.00354352        0.01462743
      73         -0.228593        2.000000        0.20145061        0.01542775        0.00424281        0.02408779
      74         -0.227855        2.000000        0.21038338        0.02164841        0.00503344        0.01659718
      75         -0.226246        2.000000        0.20444771        0.01756254        0.00327305        0.02069312
      76         -0.225979        2.000000        0.19003969        0.01490331        0.00327795        0.02563180
      77         -0.224346        2.000000        0.20816401        0.01200313        0.00455309        0.01734583
      78         -0.221976        2.000000        0.16320213        0.02045190        0.00360651        0.01774490
      79         -0.221299        2.000000        0.20589692        0.02017447        0.00418024        0.01257620
      80         -0.220625        2.000000        0.22296538        0.02076402        0.00371141        0.01172465
      81         -0.219782        2.000000        0.24158082        0.01683978        0.00677336        0.01385638
      82         -0.218876        2.000000        0.21418187        0.01346815        0.00787919        0.01378488
      83         -0.218540        2.000000        0.19116016        0.01933031        0.00506916        0.01699028
      84         -0.218013        2.000000        0.21773850        0.01330930        0.00599133        0.02104036
      85         -0.217811        2.000000        0.21948628        0.01507731        0.00501141        0.01228328
      86         -0.217249        2.000000        0.20978285        0.01631354        0.00560477        0.01388816
      87         -0.215891        2.000000        0.17536155        0.02166863        0.00516204        0.01681452
      88         -0.215542        2.000000        0.22918268        0.01361331        0.00701822        0.01611875
      89         -0.214650        2.000000        0.21071790        0.01837938        0.00553125        0.01845827
      90         -0.213925        2.000000        0.15049099        0.02124878        0.00651281        0.01365486
      91         -0.213373        2.000000        0.21465408        0.01850051        0.00898274        0.01268631
      92         -0.212640        2.000000        0.19983731        0.01248806        0.01052988        0.01987495
      93         -0.211508        2.000000        0.27626588        0.00937386        0.01066657        0.01359841
      94         -0.211198        2.000000        0.18415905        0.02168645        0.00674198        0.01468243
      95         -0.210668        2.000000        0.20565047        0.01518713        0.00523054        0.01787798
      96         -0.209866        2.000000        0.22511631        0.01436591        0.00864607        0.01938952
      97         -0.209338        2.000000        0.18052724        0.01834601        0.00572461        0.01776749
      98         -0.208565        2.000000        0.22779739        0.01830153        0.00813251        0.01316955
      99         -0.208037        2.000000        0.22430853        0.01482091        0.00975842        0.01188279
     100         -0.207022        2.000000        0.18886300        0.01565366        0.00480458        0.01690474
     101         -0.206754        2.000000        0.22393782        0.01506267        0.00742287        0.02131117
     102         -0.205257        2.000000        0.21097094        0.01428491        0.00671491        0.01577268
     103         -0.204786        2.000000        0.22229855        0.01518444        0.00773614        0.01418057
     104         -0.203622        2.000000        0.20069863        0.01096474        0.00567104        0.01776241
     105         -0.203278        2.000000        0.23945213        0.00912070        0.00969587        0.01565235
     106         -0.202443        2.000000        0.25599861        0.01153485        0.01249358        0.01372922
     107         -0.200977        2.000000        0.25393796        0.01241497        0.00642148        0.01236450
     108         -0.200551        2.000000        0.20103588        0.01441126        0.00696951        0.01890468
     109         -0.200098        2.000000        0.21481432        0.01411194        0.00812716        0.01982541
     110         -0.199292        2.000000        0.28874894        0.01133209        0.00785130        0.01144604
     111         -0.199071        2.000000        0.24224852        0.01392487        0.00718005        0.01329450
     112         -0.198266        2.000000        0.23695674        0.01329326        0.00663750        0.01422438
     113         -0.197273        2.000000        0.22476470        0.01716263        0.00815428        0.01181510
     114         -0.196705        2.000000        0.15283193        0.02405872        0.00564627        0.01287195
     115         -0.196185        2.000000        0.23591550        0.01275226        0.00694489        0.01495154
     116         -0.195372        2.000000        0.19330203        0.01532282        0.00815130        0.01600856
     117         -0.194557        2.000000        0.23735394        0.01701094        0.00701861        0.01238869
     118         -0.193743        2.000000        0.28361130        0.01065896        0.00825725        0.01130691
     119         -0.192762        2.000000        0.19474854        0.02390324        0.00679177        0.00992944
     120         -0.192290        2.000000        0.22908492        0.01132035        0.00777066        0.01826515
     121         -0.190912        2.000000        0.21359919        0.01636600        0.00596384        0.01417137
     122         -0.190089        2.000000        0.22674550        0.01367376        0.00607401        0.01416195
     123         -0.189926        2.000000        0.21289089        0.01376570        0.00508003        0.01679280
     124         -0.188838        2.000000        0.19871941        0.01511080        0.00659923        0.01453863
     125         -0.187349        2.000000        0.28645745        0.01196141        0.00673165        0.01422138
     126         -0.185488        2.000000        0.26515041        0.01280647        0.00715355        0.01196658
     127         -0.183789        2.000000        0.23429702        0.01018024        0.00809029        0.01816656
     128         -0.182665        2.000000        0.23445705        0.01530288        0.00784072        0.01176305
     129         -0.181089        2.000000        0.23054082        0.00957727        0.00649681        0.01814771
     130         -0.178329        2.000000        0.31363939        0.01182008        0.00930918        0.01192343
     131         -0.177198        2.000000        0.27721348        0.01582178        0.00840027        0.00921941
     132         -0.175776        2.000000        0.28603131        0.01220317        0.00907588        0.00911341
     133         -0.174034        2.000000        0.24656358        0.01945828        0.01074604        0.00906578
     134         -0.172663        2.000000        0.20936079        0.01755333        0.00924531        0.01683566
     135         -0.172134        2.000000        0.17210604        0.01532172        0.00839602        0.02132022
     136         -0.169400        2.000000        0.22638830        0.02255611        0.01232591        0.01016131
     137         -0.168204        2.000000        0.30182426        0.00878248        0.01634372        0.01427877
     138         -0.167535        2.000000        0.29256791        0.01136707        0.01413536        0.01168373
     139         -0.164925        2.000000        0.02244102        0.02414197        0.00171931        0.01707827
     140         -0.163389        2.000000        0.05626954        0.00823819        0.00297664        0.03160593
     141         -0.161119        2.000000        0.01733659        0.03323363        0.00149789        0.00999298
     142         -0.150517        2.000000        0.00306147        0.00362436        0.00074469        0.03522168
     143         -0.146538        2.000000        0.00357442        0.02659921        0.00106774        0.01436752
     144         -0.144147        2.000000        0.00627793        0.02289137        0.00161514        0.01909164
     145         -0.143449        2.000000        0.00295291        0.03316336        0.00080745        0.00959937
     146         -0.142946        2.000000        0.00707256        0.03137094        0.00135974        0.00935639
     147         -0.141450        2.000000        0.00991702        0.00312120        0.00215384        0.04976578
     148         -0.138674        2.000000        0.00237496        0.01165166        0.00091824        0.03126195
     149         -0.137751        2.000000        0.01054379        0.03839267        0.00346623        0.01373879
     150         -0.134760        2.000000        0.01690440        0.03868959        0.00516436        0.01302362
     151         -0.122021        2.000000        0.00282642        0.00985741        0.00168702        0.04132901
     152         -0.118260        2.000000        0.00547315        0.03022437        0.00250422        0.01957229
     153         -0.117130        2.000000        0.00148389        0.00160802        0.00057459        0.03596192
     154         -0.116928        2.000000        0.00542697        0.01848844        0.00214622        0.03118404
     155         -0.114509        2.000000        0.00567131        0.03413622        0.00216162        0.01561173
     156         -0.113935        2.000000        0.00240103        0.03758306        0.00099385        0.00137075
     157         -0.111613        2.000000        0.00335380        0.02033285        0.00225382        0.02953432
     158         -0.109514        2.000000        0.00540930        0.03840711        0.00212337        0.01413488
     159         -0.082585        2.000000        0.00335535        0.00123371        0.00121871        0.04702692
     160         -0.079565        2.000000        0.00488291        0.04558894        0.00096007        0.00157136
     161         -0.042373        0.000000        0.02733330        0.00275185        0.01662655        0.00200609
     162         -0.039418        0.000000        0.00682710        0.00883789        0.01666938        0.00748996
     163         -0.038012        0.000000        0.00540847        0.00964867        0.01505426        0.00992189
     164         -0.036111        0.000000        0.01175259        0.00401683        0.01270670        0.00556315
     165         -0.035015        0.000000        0.00591577        0.00689482        0.01219710        0.00999726
     166         -0.027089        0.000000        0.01166121        0.02011383        0.01472630        0.01148289
     167         -0.024505        0.000000        0.01356657        0.01778062        0.01253736        0.01430965
     168         -0.022873        0.000000        0.01414743        0.02005796        0.01849211        0.01846976
     169         -0.022581        0.000000        0.01569654        0.00999878        0.01585077        0.02418134
     170         -0.020349        0.000000        0.01448417        0.01429256        0.01403201        0.02083028
     171         -0.019289        0.000000        0.01582982        0.01917696        0.01506180        0.02378696
     172         -0.018933        0.000000        0.01412377        0.01135543        0.01997432        0.02309751
     173         -0.015795        0.000000        0.01334182        0.02332852        0.01756059        0.01269840
     174         -0.014337        0.000000        0.01773243        0.02549110        0.01775147        0.01201286
     175         -0.005024        0.000000        0.01126289        0.01903733        0.02268089        0.02626445
     176         -0.000157        0.000000        0.01112686        0.02727046        0.02003542        0.03035700
     177          0.000339        0.000000        0.01118479        0.04040947        0.02357810        0.01022041
     178          0.003880        0.000000        0.01017871        0.02008760        0.02153192        0.02844171
     179          0.005008        0.000000        0.01287714        0.02430294        0.02374786        0.03432401
     180          0.008910        0.000000        0.01954635        0.03177349        0.03128879        0.01932315
     181          0.019759        0.000000        0.07251431        0.05285758        0.05860844        0.13453242
     182          0.020726        0.000000        0.04944558        0.08399559        0.05035383        0.06303332
     183          0.025624        0.000000        0.03550883        0.09488181        0.03299181        0.01894979
     184          0.027449        0.000000        0.03646730        0.03747565        0.03272204        0.08519064
     185          0.028241        0.000000        0.05027035        0.07149261        0.04127487        0.06719528
     186          0.033132        0.000000        0.07664587        0.06927820        0.05888710        0.08893444
     187          0.037789        0.000000        0.07981152        0.08204296        0.06630369        0.07715982
     188          0.040785        0.000000        0.07823274        0.10289643        0.05720475        0.06591108
     189          0.041455        0.000000        0.06789580        0.06615372        0.04472342        0.08404127
     190          0.044255        0.000000        0.06698295        0.06745719        0.05869993        0.10742488
     191          0.045777        0.000000        0.08175422        0.08909565        0.04953694        0.07032863
     192          0.046700        0.000000        0.05970074        0.06160374        0.05149095        0.09411455
     193          0.051143        0.000000        0.07385180        0.12278933        0.04652095        0.05271904
     194          0.052313        0.000000        0.06376504        0.08941868        0.06152891        0.08973205
     195          0.053001        0.000000        0.05888775        0.07412833        0.06804097        0.08645160
     196          0.055091        0.000000        0.07681912        0.07552037        0.07037707        0.06566761
     197          0.055993        0.000000        0.05301646        0.12912311        0.07019894        0.05337887
     198          0.058599        0.000000        0.04862210        0.09853590        0.06538909        0.06334743
     199          0.061056        0.000000        0.07533240        0.07037249        0.04849013        0.06315556
     200          0.062600        0.000000        0.04589663        0.06108074        0.03783555        0.06439273
     201          0.064050        0.000000        0.08587514        0.07837643        0.04635835        0.03535939
     202          0.066498        0.000000        0.07934699        0.04745881        0.04779290        0.05095618
     203          0.067371        0.000000        0.05302192        0.04698338        0.02341121        0.06184884
     204          0.068367        0.000000        0.10151450        0.04954325        0.04699701        0.05880261
     205          0.069272        0.000000        0.09267951        0.03935058        0.05054881        0.07083000
     206          0.070940        0.000000        0.10531858        0.06497869        0.05013408        0.03974404
     207          0.071233        0.000000        0.10063520        0.05722315        0.05675603        0.06295654
     208          0.072129        0.000000        0.10461656        0.05520537        0.05514327        0.07425863
     209          0.072347        0.000000        0.06189947        0.06377841        0.03944026        0.07638632
     210          0.073499        0.000000        0.11887903        0.04009930        0.06121358        0.05495392
