# Projected DOS for atomic kind H at iteration step i = 0, E(Fermi) =    -0.080227 a.u.
#     MO Eigenvalue [a.u.]      Occupation                 s                py                pz                px
       1         -0.501427        2.000000        0.10718358        0.00147291        0.08276919        0.00120910
       2         -0.483266        2.000000        0.14130635        0.00183987        0.09758029        0.00170045
       3         -0.482657        2.000000        0.10335319        0.00439502        0.09033161        0.00590310
       4         -0.481267        2.000000        0.10368580        0.00705833        0.07566449        0.00533301
       5         -0.476853        2.000000        0.10007416        0.00582301        0.07489274        0.00635863
       6         -0.475303        2.000000        0.10266177        0.00635386        0.07347009        0.00680810
       7         -0.472802        2.000000        0.09570970        0.01107704        0.07014931        0.00466134
       8         -0.468041        2.000000        0.10514645        0.00347133        0.07212166        0.01127809
       9         -0.464903        2.000000        0.10837282        0.00776629        0.08342521        0.00501140
      10         -0.462456        2.000000        0.11366270        0.00781926        0.08175938        0.00517044
      11         -0.460671        2.000000        0.11550578        0.00419846        0.08308951        0.00888021
      12         -0.458957        2.000000        0.11329348        0.00611145        0.08189489        0.00731268
      13         -0.457190        2.000000        0.11540197        0.00593058        0.08019081        0.00774094
      14         -0.454293        2.000000        0.11465617        0.01025649        0.07789662        0.00408564
      15         -0.440914        2.000000        0.10443907        0.00989852        0.06256743        0.00597131
      16         -0.436620        2.000000        0.10886826        0.00708693        0.06062735        0.01075165
      17         -0.435200        2.000000        0.10636957        0.00648483        0.05751490        0.01357857
      18         -0.433352        2.000000        0.10619386        0.00996454        0.05837392        0.00694460
      19         -0.430942        2.000000        0.10646300        0.01004752        0.05882112        0.00858287
      20         -0.429981        2.000000        0.11660476        0.00501952        0.06462928        0.00519659
      21         -0.428569        2.000000        0.10504883        0.00821295        0.05771859        0.00941344
      22         -0.425195        2.000000        0.11266743        0.01145580        0.05931166        0.00539377
      23         -0.423382        2.000000        0.10856642        0.00633143        0.06060248        0.00719122
      24         -0.421512        2.000000        0.11926018        0.00679095        0.05791393        0.01022342
      25         -0.420792        2.000000        0.11283882        0.00752431        0.05646926        0.00875577
      26         -0.419777        2.000000        0.11119983        0.00780484        0.06157270        0.00568255
      27         -0.417375        2.000000        0.11595172        0.00907428        0.05677502        0.00455397
      28         -0.417337        2.000000        0.10913257        0.01022773        0.05346595        0.00634734
      29         -0.415592        2.000000        0.11582055        0.00456196        0.05689662        0.00760532
      30         -0.413684        2.000000        0.11616588        0.00518888        0.05674488        0.00881548
      31         -0.413554        2.000000        0.11824965        0.00920503        0.05453951        0.00492175
      32         -0.410405        2.000000        0.11512782        0.00652664        0.05521016        0.00762987
      33         -0.377388        2.000000        0.15859752        0.00463309        0.04311378        0.01596801
      34         -0.375452        2.000000        0.16377063        0.00592723        0.04470633        0.01070640
      35         -0.373095        2.000000        0.17374284        0.01629424        0.03758158        0.00575794
      36         -0.366500        2.000000        0.18667287        0.00511761        0.04349558        0.00707726
      37         -0.363980        2.000000        0.18778357        0.00601327        0.04258284        0.00485744
      38         -0.363590        2.000000        0.17816946        0.00830808        0.03757504        0.00775896
      39         -0.363151        2.000000        0.15475695        0.00493054        0.03783646        0.01028484
      40         -0.361919        2.000000        0.17419920        0.00816890        0.03917042        0.00574473
      41         -0.360939        2.000000        0.16918405        0.00950039        0.04031775        0.00358296
      42         -0.360748        2.000000        0.16786342        0.00729169        0.03924888        0.00607558
      43         -0.359299        2.000000        0.17817683        0.00590605        0.04400923        0.00651457
      44         -0.359009        2.000000        0.18153163        0.00604311        0.04305979        0.00433144
      45         -0.354703        2.000000        0.18099207        0.00653652        0.04344581        0.00492946
      46         -0.352338        2.000000        0.18467408        0.00738303        0.03907714        0.00597743
      47         -0.351462        2.000000        0.18165620        0.00429639        0.04052464        0.00579014
      48         -0.351059        2.000000        0.18536583        0.00527250        0.03792632        0.00619510
      49         -0.349274        2.000000        0.18258392        0.00501713        0.03886870        0.00489843
      50         -0.347667        2.000000        0.18743826        0.00486549        0.03876641        0.00420065
      51         -0.343581        2.000000        0.30159197        0.00367630        0.02628074        0.00354762
      52         -0.339177        2.000000        0.30470222        0.00370638        0.02666471        0.00331713
      53         -0.335346        2.000000        0.30591159        0.00277353        0.02333373        0.00320547
      54         -0.333525        2.000000        0.29597663        0.00399395        0.02523298        0.00501630
      55         -0.332255        2.000000        0.31039002        0.00229810        0.01678071        0.00249765
      56         -0.330813        2.000000        0.30035428        0.00653583        0.02075857        0.00177537
      57         -0.325323        2.000000        0.30192151        0.00196573        0.01803648        0.00400979
      58         -0.322132        2.000000        0.28809833        0.00209400        0.04280499        0.00243571
      59         -0.319995        2.000000        0.28131181        0.00251138        0.04682239        0.00306529
      60         -0.319752        2.000000        0.29140430        0.00368448        0.04521609        0.00123131
      61         -0.318474        2.000000        0.28542036        0.00216078        0.04469344        0.00340848
      62         -0.317095        2.000000        0.27975082        0.00326167        0.05148137        0.00339918
      63         -0.315352        2.000000        0.28296328        0.00190700        0.04772157        0.00211190
      64         -0.311921        2.000000        0.30738819        0.00110627        0.05373628        0.00124959
      65         -0.243191        2.000000        0.22257800        0.01257139        0.00227466        0.02980508
      66         -0.240756        2.000000        0.22723463        0.00927757        0.00135231        0.02674810
      67         -0.240141        2.000000        0.21764264        0.03501217        0.00193217        0.00537392
      68         -0.236056        2.000000        0.20178251        0.02768827        0.00435140        0.02016011
      69         -0.235795        2.000000        0.20674603        0.01867715        0.00434297        0.02688312
      70         -0.233164        2.000000        0.21339102        0.01496633        0.00318744        0.02561682
      71         -0.231805        2.000000        0.19795202        0.01403683        0.00418580        0.02290339
      72         -0.230625        2.000000        0.20452218        0.02316961        0.00324770        0.01422886
      73         -0.228438        2.000000        0.20260221        0.01897378        0.00467343        0.02186051
      74         -0.228207        2.000000        0.20771534        0.02137457        0.00487925        0.01750628
      75         -0.226175        2.000000        0.20700761        0.01496471        0.00241605        0.02304662
      76         -0.225753        2.000000        0.19794363        0.01548570        0.00394545        0.02379640
      77         -0.223533        2.000000        0.19514925        0.01704538        0.00423502        0.01637935
      78         -0.222762        2.000000        0.19687888        0.01912588        0.00432041        0.01691237
      79         -0.221650        2.000000        0.18758973        0.01832112        0.00297935        0.01540157
      80         -0.219982        2.000000        0.22942606        0.01755498        0.00791519        0.01317296
      81         -0.219933        2.000000        0.24351901        0.01717730        0.00452916        0.01291339
      82         -0.219326        2.000000        0.23381947        0.01551971        0.00823145        0.01445853
      83         -0.218191        2.000000        0.19761965        0.02058183        0.00692110        0.01390706
      84         -0.217843        2.000000        0.22466429        0.01586429        0.00402545        0.01490597
      85         -0.217214        2.000000        0.21672531        0.01281868        0.00557485        0.02081902
      86         -0.216595        2.000000        0.22031718        0.01287845        0.00384491        0.01508691
      87         -0.215788        2.000000        0.16822232        0.02140883        0.00465099        0.01780981
      88         -0.215300        2.000000        0.24280441        0.01534082        0.00845504        0.01036300
      89         -0.214147        2.000000        0.20672123        0.01745191        0.00508476        0.01678740
      90         -0.213996        2.000000        0.22043686        0.01257159        0.00796157        0.01615147
      91         -0.213205        2.000000        0.16113200        0.02522649        0.00599455        0.01240067
      92         -0.212382        2.000000        0.20065956        0.01258954        0.01082197        0.02038676
      93         -0.211837        2.000000        0.21357738        0.01702657        0.00778293        0.01509310
      94         -0.211524        2.000000        0.27584410        0.00797021        0.00982633        0.01464904
      95         -0.210532        2.000000        0.19296375        0.01802475        0.00598004        0.01738358
      96         -0.209866        2.000000        0.25044336        0.01295317        0.00907096        0.02128659
      97         -0.208965        2.000000        0.18104302        0.02196596        0.00848604        0.01156319
      98         -0.208437        2.000000        0.22767830        0.01865019        0.00828994        0.01294967
      99         -0.207473        2.000000        0.20928145        0.01587981        0.00952030        0.01666025
     100         -0.207068        2.000000        0.23948167        0.01288080        0.00722896        0.01884280
     101         -0.206847        2.000000        0.17916083        0.01596129        0.00527817        0.01991420
     102         -0.204999        2.000000        0.18825623        0.01668696        0.00801973        0.01466909
     103         -0.204593        2.000000        0.23574401        0.01385664        0.00895560        0.01228016
     104         -0.203739        2.000000        0.20090059        0.00928688        0.00754787        0.01778019
     105         -0.203652        2.000000        0.20253489        0.01291504        0.00781913        0.01743339
     106         -0.202304        2.000000        0.26932664        0.00882920        0.01129118        0.01374439
     107         -0.201517        2.000000        0.25615404        0.00859892        0.00595357        0.01676366
     108         -0.201022        2.000000        0.20722095        0.01470018        0.00615313        0.01776154
     109         -0.200370        2.000000        0.21529057        0.01779230        0.00738891        0.01646203
     110         -0.199252        2.000000        0.27535787        0.01167105        0.00920819        0.01048891
     111         -0.198633        2.000000        0.23333268        0.00843682        0.00757060        0.01722208
     112         -0.198412        2.000000        0.22158055        0.01606460        0.00624743        0.01485654
     113         -0.197759        2.000000        0.23657778        0.01815765        0.00668941        0.01108333
     114         -0.196598        2.000000        0.17789454        0.02336557        0.00513076        0.01309925
     115         -0.196338        2.000000        0.19734906        0.01656702        0.00646329        0.01565057
     116         -0.195671        2.000000        0.20467086        0.01884864        0.00860999        0.01298088
     117         -0.194946        2.000000        0.22845460        0.01337486        0.00552121        0.01421470
     118         -0.194570        2.000000        0.26761166        0.01091393        0.00700016        0.01314724
     119         -0.192955        2.000000        0.21074846        0.02187256        0.00739084        0.00933101
     120         -0.192481        2.000000        0.22899420        0.01264526        0.00876393        0.01605968
     121         -0.191810        2.000000        0.20801426        0.01301050        0.00536001        0.01564940
     122         -0.190848        2.000000        0.20242696        0.01619659        0.00577742        0.01366342
     123         -0.190133        2.000000        0.19475319        0.01416895        0.00545618        0.01888697
     124         -0.189424        2.000000        0.20677154        0.01493139        0.00617540        0.01418231
     125         -0.187567        2.000000        0.27454651        0.01211381        0.00584090        0.01399593
     126         -0.186542        2.000000        0.26713151        0.01251827        0.00660335        0.00951565
     127         -0.184040        2.000000        0.21988521        0.01095102        0.00778529        0.01805703
     128         -0.182566        2.000000        0.22099047        0.01628956        0.00773887        0.01352160
     129         -0.181417        2.000000        0.24461509        0.00921320        0.00675549        0.01694681
     130         -0.178873        2.000000        0.30254941        0.01178052        0.00902305        0.01316690
     131         -0.177750        2.000000        0.26503130        0.01542835        0.00816467        0.00910190
     132         -0.176186        2.000000        0.27008885        0.01403946        0.00917589        0.00993534
     133         -0.175424        2.000000        0.24255530        0.01918761        0.00921120        0.00844151
     134         -0.172925        2.000000        0.25091999        0.01279300        0.01029070        0.01683101
     135         -0.172345        2.000000        0.17720797        0.01468644        0.00899918        0.02026264
     136         -0.169814        2.000000        0.22660396        0.02124238        0.01215166        0.01077558
     137         -0.167947        2.000000        0.28429612        0.00957176        0.01632745        0.01480906
     138         -0.167170        2.000000        0.32656224        0.01272137        0.01378200        0.00968949
     139         -0.164224        2.000000        0.01823495        0.02384815        0.00163561        0.01898907
     140         -0.162293        2.000000        0.03683759        0.00972083        0.00225890        0.03223155
     141         -0.160507        2.000000        0.01754080        0.03322119        0.00146955        0.01025080
     142         -0.148917        2.000000        0.00230592        0.00416521        0.00077389        0.03555820
     143         -0.145728        2.000000        0.00372249        0.02663573        0.00111184        0.01530636
     144         -0.143397        2.000000        0.00457123        0.02217211        0.00126647        0.02120219
     145         -0.142741        2.000000        0.00240052        0.03360816        0.00072285        0.01004411
     146         -0.142344        2.000000        0.00516188        0.02970375        0.00139669        0.01167607
     147         -0.141796        2.000000        0.00877364        0.00429870        0.00190677        0.04755281
     148         -0.138245        2.000000        0.00275224        0.01824312        0.00137396        0.02677213
     149         -0.138081        2.000000        0.00920620        0.03274580        0.00298839        0.01785139
     150         -0.135239        2.000000        0.01583622        0.03799066        0.00483442        0.01359960
     151         -0.122030        2.000000        0.00274644        0.01099016        0.00159885        0.04023992
     152         -0.118607        2.000000        0.00553841        0.02961705        0.00251486        0.01978146
     153         -0.117259        2.000000        0.00606302        0.01932940        0.00248661        0.02920228
     154         -0.116217        2.000000        0.00126123        0.00219038        0.00047043        0.03657831
     155         -0.114740        2.000000        0.00552582        0.03190246        0.00201497        0.01796374
     156         -0.113141        2.000000        0.00190128        0.03732590        0.00095031        0.00200220
     157         -0.112090        2.000000        0.00339282        0.01939141        0.00224747        0.03013409
     158         -0.110051        2.000000        0.00563141        0.03784542        0.00207788        0.01380161
     159         -0.082580        2.000000        0.00322253        0.00174345        0.00128712        0.04666718
     160         -0.080227        2.000000        0.00532340        0.04448265        0.00103314        0.00178635
     161         -0.041587        0.000000        0.02707604        0.00270462        0.01922108        0.00213166
     162         -0.038519        0.000000        0.00594824        0.00920988        0.01705458        0.00926593
     163         -0.037464        0.000000        0.00546478        0.01087305        0.01520177        0.00861193
     164         -0.036090        0.000000        0.01361111        0.00377158        0.01028172        0.00447722
     165         -0.034314        0.000000        0.00542027        0.00754877        0.01339997        0.01109581
     166         -0.026282        0.000000        0.01230679        0.02078459        0.01530891        0.01126835
     167         -0.023475        0.000000        0.01300090        0.01876491        0.01597560        0.01775446
     168         -0.023108        0.000000        0.01491636        0.02061197        0.01508436        0.01503794
     169         -0.022051        0.000000        0.01510775        0.01061324        0.01625116        0.02353048
     170         -0.019627        0.000000        0.01677266        0.01988347        0.01639343        0.02142646
     171         -0.019292        0.000000        0.01451312        0.01479813        0.01480724        0.02243788
     172         -0.018342        0.000000        0.01325269        0.01249582        0.02004557        0.02320696
     173         -0.015679        0.000000        0.01327744        0.02333351        0.01758788        0.01300299
     174         -0.014252        0.000000        0.01740817        0.02489291        0.01710345        0.01148421
     175         -0.005519        0.000000        0.01226238        0.01956911        0.02256296        0.02503264
     176         -0.000640        0.000000        0.01102010        0.02785708        0.02007453        0.03002875
     177          0.000129        0.000000        0.01102913        0.04061503        0.02229015        0.00907364
     178          0.003502        0.000000        0.00968578        0.01983737        0.01987395        0.02829058
     179          0.004759        0.000000        0.01370370        0.02401371        0.02408036        0.03369040
     180          0.008830        0.000000        0.01956258        0.03424784        0.03050232        0.01777837
     181          0.020095        0.000000        0.06613205        0.08098718        0.06818814        0.11737278
     182          0.020654        0.000000        0.05798501        0.07696254        0.04506282        0.06629674
     183          0.025457        0.000000        0.04473778        0.10987730        0.03978282        0.02799596
     184          0.027999        0.000000        0.05441674        0.05493440        0.05196576        0.10583292
     185          0.028536        0.000000        0.01782345        0.02658835        0.01351941        0.04678209
     186          0.034145        0.000000        0.07637940        0.06162155        0.06008982        0.09517163
     187          0.037006        0.000000        0.08730441        0.10316287        0.06892399        0.05104191
     188          0.038275        0.000000        0.08700344        0.09764324        0.05375230        0.06977617
     189          0.041759        0.000000        0.06404932        0.07141611        0.04785454        0.08459936
     190          0.044118        0.000000        0.06375832        0.07431775        0.05321400        0.09718698
     191          0.044986        0.000000        0.09048164        0.07943553        0.05303207        0.07771428
     192          0.046888        0.000000        0.06081140        0.06839347        0.05719473        0.09384855
     193          0.051056        0.000000        0.07929316        0.09647378        0.04270557        0.07388956
     194          0.051807        0.000000        0.07364514        0.10925894        0.06093933        0.06549174
     195          0.052671        0.000000        0.05575396        0.09014615        0.07179330        0.07426862
     196          0.055077        0.000000        0.07322509        0.05622268        0.07642488        0.09299111
     197          0.055744        0.000000        0.05447897        0.11928895        0.06620035        0.06326516
     198          0.058958        0.000000        0.05046253        0.08052535        0.06007736        0.06731146
     199          0.061043        0.000000        0.08203351        0.07549242        0.05103625        0.05695975
     200          0.062404        0.000000        0.08518233        0.08345506        0.04786673        0.03765848
     201          0.062781        0.000000        0.04911253        0.06675280        0.04512970        0.06521202
     202          0.066270        0.000000        0.06181920        0.05000986        0.03540737        0.06276039
     203          0.067113        0.000000        0.09276933        0.06109414        0.04382038        0.04141920
     204          0.068069        0.000000        0.09645136        0.04455815        0.04773086        0.05725515
     205          0.069411        0.000000        0.09048629        0.04576438        0.04467432        0.05252247
     206          0.070022        0.000000        0.10156353        0.07753801        0.04905250        0.08003359
     207          0.071898        0.000000        0.05801151        0.05513371        0.04519911        0.08583153
     208          0.072736        0.000000        0.08303079        0.04871384        0.04826595        0.06047170
     209          0.073157        0.000000        0.10100864        0.06410893        0.04991208        0.06032123
     210          0.074028        0.000000        0.07136058        0.05686410        0.04662877        0.05357483
