# Projected DOS for atomic kind H at iteration step i = 0, E(Fermi) =    -0.079919 a.u.
#     MO Eigenvalue [a.u.]      Occupation                 s                py                pz                px
       1         -0.501386        2.000000        0.10749614        0.00150795        0.08269640        0.00119242
       2         -0.483422        2.000000        0.14547149        0.00134743        0.10394705        0.00101763
       3         -0.482738        2.000000        0.09976876        0.00499652        0.08442135        0.00649131
       4         -0.481054        2.000000        0.10219587        0.00725895        0.07500363        0.00529584
       5         -0.476601        2.000000        0.09934523        0.00499440        0.07473996        0.00753277
       6         -0.475294        2.000000        0.10338667        0.00674432        0.07384446        0.00602002
       7         -0.472742        2.000000        0.09646921        0.01126275        0.07050818        0.00447636
       8         -0.468151        2.000000        0.10590811        0.00357423        0.07186078        0.01124921
       9         -0.465376        2.000000        0.10784533        0.00784014        0.08362312        0.00491742
      10         -0.462411        2.000000        0.11249624        0.00784202        0.08210017        0.00510311
      11         -0.460749        2.000000        0.11349502        0.00417265        0.08294655        0.00881456
      12         -0.459339        2.000000        0.11187423        0.00572660        0.08178196        0.00749150
      13         -0.457172        2.000000        0.11376165        0.00621264        0.07990019        0.00746053
      14         -0.454477        2.000000        0.11464718        0.01009402        0.07778928        0.00414973
      15         -0.440717        2.000000        0.10396140        0.01004232        0.06231709        0.00583724
      16         -0.436556        2.000000        0.10843664        0.00677856        0.06057269        0.01136869
      17         -0.435490        2.000000        0.10849984        0.00673776        0.05770053        0.01312854
      18         -0.433009        2.000000        0.10578234        0.01005606        0.05838323        0.00696312
      19         -0.431018        2.000000        0.10771666        0.00971910        0.05917626        0.00869604
      20         -0.429975        2.000000        0.11720939        0.00550136        0.06461492        0.00484268
      21         -0.428853        2.000000        0.10714944        0.00796072        0.05811182        0.00941741
      22         -0.425191        2.000000        0.11212866        0.01153475        0.05880082        0.00562690
      23         -0.423642        2.000000        0.10699497        0.00620192        0.06095689        0.00722525
      24         -0.421261        2.000000        0.11746129        0.00763040        0.05776418        0.00939697
      25         -0.420925        2.000000        0.11143816        0.00650060        0.05680727        0.00985351
      26         -0.419437        2.000000        0.11005917        0.00785548        0.06083062        0.00542272
      27         -0.417413        2.000000        0.11367385        0.00938245        0.05752516        0.00440099
      28         -0.417403        2.000000        0.10986466        0.01032452        0.05315740        0.00577369
      29         -0.415863        2.000000        0.11526711        0.00394159        0.05643167        0.00818617
      30         -0.413805        2.000000        0.11473506        0.00487498        0.05584944        0.00938482
      31         -0.413310        2.000000        0.11622258        0.00964391        0.05492741        0.00392518
      32         -0.410924        2.000000        0.11492080        0.00593001        0.05526926        0.00806334
      33         -0.377516        2.000000        0.15932168        0.00437241        0.04324624        0.01624861
      34         -0.375439        2.000000        0.16490934        0.00591045        0.04445994        0.01074885
      35         -0.373158        2.000000        0.17432774        0.01665409        0.03785904        0.00515725
      36         -0.366366        2.000000        0.18566322        0.00540075        0.04390022        0.00671982
      37         -0.364056        2.000000        0.18298010        0.00856841        0.03608071        0.00801649
      38         -0.363414        2.000000        0.17495684        0.00672140        0.04108422        0.00652780
      39         -0.363277        2.000000        0.16405877        0.00516486        0.03924248        0.00889800
      40         -0.361755        2.000000        0.17706432        0.00734560        0.03990354        0.00610451
      41         -0.361132        2.000000        0.17001238        0.00912828        0.03934418        0.00376622
      42         -0.360635        2.000000        0.16276888        0.00626300        0.03972631        0.00700898
      43         -0.359713        2.000000        0.17594463        0.00601157        0.04649376        0.00606269
      44         -0.358738        2.000000        0.18126631        0.00643087        0.04184592        0.00380940
      45         -0.354643        2.000000        0.18107738        0.00598040        0.04289079        0.00542514
      46         -0.352409        2.000000        0.18182038        0.00671774        0.04060677        0.00622812
      47         -0.351358        2.000000        0.18395580        0.00532076        0.03772784        0.00552058
      48         -0.351172        2.000000        0.18272725        0.00502496        0.03975628        0.00597415
      49         -0.348830        2.000000        0.18143508        0.00501633        0.03826231        0.00500731
      50         -0.347208        2.000000        0.18395055        0.00495277        0.03878049        0.00412992
      51         -0.343829        2.000000        0.29874432        0.00390512        0.02671984        0.00359997
      52         -0.338277        2.000000        0.30324713        0.00386678        0.02614206        0.00330709
      53         -0.335966        2.000000        0.30580816        0.00275213        0.02420191        0.00346165
      54         -0.333403        2.000000        0.29585261        0.00444852        0.02604990        0.00477604
      55         -0.331661        2.000000        0.30926939        0.00211603        0.01731152        0.00289630
      56         -0.330441        2.000000        0.30193916        0.00615032        0.02007952        0.00168569
      57         -0.324889        2.000000        0.30051340        0.00226911        0.01912392        0.00415221
      58         -0.321896        2.000000        0.28633520        0.00214532        0.04289132        0.00284131
      59         -0.319786        2.000000        0.28107816        0.00274999        0.04845939        0.00245784
      60         -0.319403        2.000000        0.28834139        0.00240703        0.04250972        0.00255940
      61         -0.317985        2.000000        0.28647598        0.00268689        0.04474755        0.00241923
      62         -0.316986        2.000000        0.28156858        0.00279720        0.05014922        0.00321832
      63         -0.314684        2.000000        0.28220249        0.00212281        0.04715781        0.00197161
      64         -0.311791        2.000000        0.30676350        0.00112263        0.05367400        0.00127140
      65         -0.242845        2.000000        0.22342492        0.01241357        0.00234290        0.03014145
      66         -0.241208        2.000000        0.22843245        0.00916401        0.00121416        0.02644301
      67         -0.239629        2.000000        0.21922036        0.03548149        0.00176589        0.00509020
      68         -0.236136        2.000000        0.20152187        0.01889477        0.00512194        0.02727112
      69         -0.235790        2.000000        0.20920825        0.02681133        0.00362768        0.02024636
      70         -0.233200        2.000000        0.21524774        0.01398429        0.00320612        0.02549299
      71         -0.232100        2.000000        0.19904668        0.01339643        0.00381584        0.02458060
      72         -0.230553        2.000000        0.20291046        0.02324031        0.00336494        0.01433967
      73         -0.228451        2.000000        0.20120340        0.01610201        0.00427510        0.02372302
      74         -0.228019        2.000000        0.20957961        0.02259060        0.00513794        0.01657166
      75         -0.226178        2.000000        0.20489585        0.01734828        0.00286597        0.02159957
      76         -0.225839        2.000000        0.19662898        0.01416660        0.00358007        0.02509431
      77         -0.223946        2.000000        0.20393521        0.01286705        0.00447179        0.01756127
      78         -0.222418        2.000000        0.17792340        0.02162597        0.00401312        0.01616259
      79         -0.221550        2.000000        0.19073798        0.01986041        0.00329962        0.01398383
      80         -0.220368        2.000000        0.23635809        0.01860309        0.00377298        0.01238704
      81         -0.219781        2.000000        0.23975732        0.01759591        0.00744760        0.01332925
      82         -0.219082        2.000000        0.22367359        0.01313545        0.00886349        0.01467677
      83         -0.218259        2.000000        0.18955323        0.02142141        0.00655682        0.01602696
      84         -0.217825        2.000000        0.23346889        0.01425861        0.00403408        0.01211132
      85         -0.217607        2.000000        0.21227480        0.01315060        0.00593501        0.02186115
      86         -0.217020        2.000000        0.21127912        0.01455070        0.00418574        0.01430856
      87         -0.215893        2.000000        0.16860210        0.02162365        0.00478982        0.01723291
      88         -0.215337        2.000000        0.24952808        0.01376371        0.00805749        0.01243132
      89         -0.214422        2.000000        0.20513252        0.01759853        0.00511112        0.01800762
      90         -0.213801        2.000000        0.20271645        0.01192845        0.00766204        0.01714159
      91         -0.213497        2.000000        0.16407848        0.02798109        0.00719710        0.01125023
      92         -0.212446        2.000000        0.19978736        0.01219735        0.01059789        0.01949966
      93         -0.211629        2.000000        0.26267010        0.01247089        0.01002210        0.01189586
      94         -0.211497        2.000000        0.21742616        0.01536376        0.00746196        0.01691820
      95         -0.210619        2.000000        0.19558830        0.01651633        0.00531573        0.01810483
      96         -0.209846        2.000000        0.23623304        0.01345760        0.00876254        0.02063248
      97         -0.209122        2.000000        0.18319004        0.02055087        0.00705240        0.01409665
      98         -0.208490        2.000000        0.22396652        0.01876968        0.00840582        0.01337725
      99         -0.207761        2.000000        0.22092997        0.01535501        0.00964190        0.01408886
     100         -0.207002        2.000000        0.20405734        0.01404110        0.00607484        0.01896246
     101         -0.206786        2.000000        0.20924517        0.01602012        0.00649368        0.02010741
     102         -0.205120        2.000000        0.20685153        0.01552680        0.00731105        0.01418710
     103         -0.204662        2.000000        0.21613129        0.01505793        0.00804348        0.01372730
     104         -0.203759        2.000000        0.19208498        0.01064131        0.00539970        0.01883798
     105         -0.203444        2.000000        0.22805390        0.01062328        0.01062518        0.01533500
     106         -0.202401        2.000000        0.26665473        0.00965210        0.01133541        0.01373437
     107         -0.201202        2.000000        0.26078692        0.00926881        0.00633963        0.01472737
     108         -0.200793        2.000000        0.20626476        0.01492127        0.00669126        0.01801311
     109         -0.200380        2.000000        0.21151845        0.01665263        0.00751305        0.01816470
     110         -0.199271        2.000000        0.28749692        0.01083657        0.00872018        0.01007609
     111         -0.198853        2.000000        0.22647598        0.01450474        0.00701189        0.01578864
     112         -0.198353        2.000000        0.24143575        0.01139285        0.00702808        0.01469494
     113         -0.197478        2.000000        0.22359417        0.01843200        0.00743714        0.01138814
     114         -0.196620        2.000000        0.15801997        0.02367476        0.00554553        0.01431423
     115         -0.196267        2.000000        0.22296309        0.01406242        0.00648807        0.01478705
     116         -0.195423        2.000000        0.17960094        0.01830508        0.00886772        0.01560115
     117         -0.194969        2.000000        0.25601204        0.01397103        0.00574898        0.01161674
     118         -0.194158        2.000000        0.27841877        0.01075457        0.00764044        0.01187696
     119         -0.192942        2.000000        0.20096275        0.02317534        0.00722561        0.00981045
     120         -0.192382        2.000000        0.22855349        0.01142262        0.00816503        0.01755281
     121         -0.191361        2.000000        0.21547421        0.01458565        0.00564734        0.01428773
     122         -0.190404        2.000000        0.20359263        0.01594551        0.00569761        0.01447044
     123         -0.190055        2.000000        0.20704347        0.01334184        0.00527222        0.01789404
     124         -0.189214        2.000000        0.19989874        0.01540954        0.00652856        0.01443977
     125         -0.187463        2.000000        0.28416197        0.01184794        0.00634817        0.01380148
     126         -0.186020        2.000000        0.26825378        0.01270186        0.00685212        0.01042286
     127         -0.183922        2.000000        0.22646850        0.01035517        0.00803895        0.01837216
     128         -0.182621        2.000000        0.22549122        0.01603124        0.00773719        0.01269105
     129         -0.181262        2.000000        0.23534472        0.00929496        0.00661322        0.01772211
     130         -0.178533        2.000000        0.31265897        0.01146868        0.00921176        0.01258039
     131         -0.177432        2.000000        0.26731140        0.01625580        0.00822337        0.00902737
     132         -0.176034        2.000000        0.27841908        0.01276097        0.00911584        0.00972391
     133         -0.174805        2.000000        0.24340413        0.01964333        0.00991511        0.00858799
     134         -0.172794        2.000000        0.22996782        0.01497755        0.00979352        0.01700177
     135         -0.172281        2.000000        0.17279051        0.01513704        0.00863719        0.02087617
     136         -0.169558        2.000000        0.22904538        0.02128531        0.01268761        0.01045505
     137         -0.167880        2.000000        0.27327037        0.01073451        0.01570840        0.01625705
     138         -0.167527        2.000000        0.32869618        0.01099728        0.01430738        0.00894684
     139         -0.164559        2.000000        0.02017085        0.02387157        0.00167332        0.01810993
     140         -0.162827        2.000000        0.04684503        0.00912021        0.00261607        0.03176137
     141         -0.160795        2.000000        0.01749357        0.03326673        0.00148212        0.01010987
     142         -0.149730        2.000000        0.00260537        0.00381883        0.00074704        0.03534811
     143         -0.146123        2.000000        0.00363939        0.02660650        0.00109408        0.01478042
     144         -0.143750        2.000000        0.00542877        0.02239659        0.00142902        0.02023892
     145         -0.143075        2.000000        0.00263698        0.03360079        0.00075941        0.00965848
     146         -0.142632        2.000000        0.00605087        0.03090639        0.00134424        0.01005087
     147         -0.141644        2.000000        0.00937936        0.00342575        0.00206320        0.04910054
     148         -0.138429        2.000000        0.00208736        0.01277434        0.00090709        0.03065198
     149         -0.137930        2.000000        0.01037212        0.03765829        0.00347716        0.01434524
     150         -0.134993        2.000000        0.01649695        0.03838618        0.00504090        0.01331097
     151         -0.122042        2.000000        0.00275964        0.01041310        0.00164888        0.04080476
     152         -0.118445        2.000000        0.00553212        0.02995607        0.00251871        0.01969386
     153         -0.117104        2.000000        0.00577605        0.01892475        0.00237469        0.03007382
     154         -0.116666        2.000000        0.00137457        0.00177860        0.00048300        0.03646511
     155         -0.114629        2.000000        0.00567461        0.03302532        0.00210800        0.01683357
     156         -0.113517        2.000000        0.00210981        0.03750148        0.00096912        0.00158394
     157         -0.111867        2.000000        0.00336227        0.01982056        0.00224533        0.02985487
     158         -0.109788        2.000000        0.00553299        0.03822210        0.00210030        0.01396046
     159         -0.082586        2.000000        0.00329243        0.00138677        0.00126056        0.04694315
     160         -0.079919        2.000000        0.00511540        0.04512823        0.00099767        0.00159871
     161         -0.041944        0.000000        0.02723095        0.00273118        0.01788791        0.00206047
     162         -0.038953        0.000000        0.00637417        0.00912779        0.01688869        0.00821095
     163         -0.037729        0.000000        0.00543933        0.01013758        0.01523137        0.00942408
     164         -0.036107        0.000000        0.01281873        0.00378308        0.01136940        0.00481986
     165         -0.034649        0.000000        0.00546391        0.00730137        0.01289133        0.01078463
     166         -0.026673        0.000000        0.01193424        0.02044512        0.01499638        0.01135645
     167         -0.023880        0.000000        0.01319662        0.01829507        0.01301291        0.01477828
     168         -0.023077        0.000000        0.01454743        0.02032748        0.01801937        0.01796456
     169         -0.022308        0.000000        0.01545451        0.01031831        0.01605279        0.02381594
     170         -0.019920        0.000000        0.01513493        0.01605257        0.01490895        0.02058854
     171         -0.019358        0.000000        0.01568387        0.01801371        0.01535375        0.02383967
     172         -0.018616        0.000000        0.01368368        0.01189143        0.01998311        0.02312078
     173         -0.015716        0.000000        0.01334776        0.02335789        0.01764054        0.01288766
     174         -0.014291        0.000000        0.01750533        0.02520776        0.01734143        0.01174128
     175         -0.005280        0.000000        0.01172289        0.01929060        0.02259329        0.02560909
     176         -0.000414        0.000000        0.01100274        0.02765291        0.01999191        0.03027271
     177          0.000234        0.000000        0.01113424        0.04033383        0.02294412        0.00955162
     178          0.003675        0.000000        0.00984322        0.02004348        0.02059914        0.02826946
     179          0.004860        0.000000        0.01336042        0.02413814        0.02392458        0.03418776
     180          0.008852        0.000000        0.01958496        0.03316583        0.03079781        0.01859307
     181          0.020006        0.000000        0.07282483        0.05425639        0.06161292        0.14024463
     182          0.020620        0.000000        0.05040779        0.09252592        0.04976849        0.05120327
     183          0.025582        0.000000        0.03978584        0.10450704        0.03592003        0.02106249
     184          0.027782        0.000000        0.04916771        0.05123201        0.04588059        0.10032427
     185          0.028319        0.000000        0.03042856        0.04324179        0.02451605        0.05374269
     186          0.033634        0.000000        0.07667424        0.06483516        0.05961523        0.09214970
     187          0.037402        0.000000        0.08313740        0.08836418        0.06794541        0.06823026
     188          0.039610        0.000000        0.08329629        0.10923200        0.05456569        0.06024661
     189          0.041602        0.000000        0.06475066        0.06427144        0.04666067        0.08854894
     190          0.044238        0.000000        0.06514475        0.07119181        0.05650608        0.10303603
     191          0.045324        0.000000        0.08691050        0.08390551        0.05116923        0.07340393
     192          0.046841        0.000000        0.05994344        0.06430353        0.05425845        0.09393329
     193          0.051116        0.000000        0.07604054        0.11017112        0.04362333        0.06415597
     194          0.052129        0.000000        0.06752150        0.10306206        0.06041980        0.07457312
     195          0.052846        0.000000        0.05684342        0.08028347        0.07069750        0.08140667
     196          0.055020        0.000000        0.07571517        0.06315666        0.07260334        0.08188604
     197          0.055907        0.000000        0.05374880        0.12598923        0.06954894        0.05654318
     198          0.058893        0.000000        0.04715448        0.08931101        0.06247385        0.06542410
     199          0.061037        0.000000        0.07990649        0.07329729        0.04952100        0.05973534
     200          0.062717        0.000000        0.04618815        0.06362759        0.04102176        0.06589870
     201          0.063305        0.000000        0.08723240        0.08251517        0.04858655        0.03546651
     202          0.066642        0.000000        0.06702150        0.04640036        0.04330047        0.05207537
     203          0.067011        0.000000        0.07583784        0.05614436        0.03177525        0.05242908
     204          0.068168        0.000000        0.09632484        0.04847106        0.04539639        0.06011553
     205          0.069446        0.000000        0.09355170        0.04336410        0.04731603        0.06505996
     206          0.070582        0.000000        0.11456822        0.07099225        0.05399981        0.06337160
     207          0.071761        0.000000        0.05952047        0.05773575        0.04094489        0.07603548
     208          0.072498        0.000000        0.08205061        0.05756875        0.05119945        0.07024135
     209          0.072686        0.000000        0.10003187        0.05716091        0.05004238        0.05841544
     210          0.073818        0.000000        0.09961993        0.04322433        0.05108517        0.05926891
