# Projected DOS for atomic kind Si at iteration step i = 0, E(Fermi) =    -0.077826 a.u.
#     MO Eigenvalue [a.u.]      Occupation                 s                py                pz                px               d-2               d-1                d0               d+1               d+2
       1         -0.499993        2.000000        0.01204034        0.00029462        0.00161209        0.00015136        0.00002094        0.00004035        0.00013404        0.00002720        0.00001960
       2         -0.486364        2.000000        0.65337877        0.00405415        0.02609833        0.00223119        0.00080629        0.00051512        0.03216597        0.00027895        0.00123768
       3         -0.481915        2.000000        0.00740206        0.00176282        0.00116904        0.00289516        0.00023295        0.00011556        0.00013485        0.00018230        0.00011243
       4         -0.479773        2.000000        0.00521943        0.00262618        0.00104817        0.00079891        0.00005622        0.00016240        0.00013060        0.00006347        0.00023425
       5         -0.475800        2.000000        0.00660813        0.00106355        0.00083908        0.00268292        0.00018715        0.00006477        0.00016388        0.00012709        0.00010121
       6         -0.474302        2.000000        0.02781399        0.00829775        0.00100004        0.00621076        0.00062952        0.00042350        0.00016227        0.00024916        0.00095352
       7         -0.472373        2.000000        0.02785770        0.01119743        0.00108413        0.00287831        0.00033124        0.00036555        0.00035323        0.00016461        0.00098037
       8         -0.470240        2.000000        0.45748322        0.14140424        0.01252410        0.06286645        0.00782118        0.00744162        0.00790950        0.00285971        0.01904332
       9         -0.467469        2.000000        0.04665255        0.01031815        0.00117118        0.01290494        0.00137403        0.00038942        0.00057714        0.00059612        0.00106394
      10         -0.464808        2.000000        0.47561143        0.07544833        0.01107053        0.14325836        0.01742821        0.00303063        0.00840996        0.00750219        0.00965073
      11         -0.463897        2.000000        0.49229984        0.08452278        0.01163102        0.14001218        0.01731139        0.00445811        0.00802677        0.00611575        0.01047861
      12         -0.463054        2.000000        0.47553661        0.08034324        0.00922531        0.13987879        0.01695185        0.00404389        0.00903496        0.00621824        0.00961748
      13         -0.459104        2.000000        0.49376147        0.09756772        0.00950471        0.13430512        0.01582898        0.00416346        0.00729928        0.00618776        0.01368482
      14         -0.456772        2.000000        0.49737192        0.18259833        0.00873958        0.05485368        0.00712730        0.00893123        0.00764333        0.00271690        0.02178112
      15         -0.439602        2.000000        0.00198385        0.00154066        0.00057680        0.00076520        0.00017679        0.00026226        0.00015362        0.00016130        0.00014771
      16         -0.436567        2.000000        0.00348411        0.00080098        0.00051155        0.00281760        0.00025208        0.00018329        0.00016789        0.00029187        0.00034192
      17         -0.432968        2.000000        0.00489228        0.00144129        0.00040216        0.00354322        0.00042648        0.00016517        0.00016409        0.00029386        0.00040550
      18         -0.432234        2.000000        0.00663662        0.00293786        0.00034285        0.00327782        0.00053627        0.00028018        0.00012153        0.00029149        0.00054316
      19         -0.430475        2.000000        0.02553675        0.01205617        0.00051501        0.00994323        0.00219163        0.00081774        0.00025826        0.00067502        0.00220135
      20         -0.429737        2.000000        0.00889075        0.00412504        0.00046783        0.00393585        0.00066798        0.00053771        0.00017752        0.00029938        0.00088926
      21         -0.427427        2.000000        0.09553766        0.03180110        0.00090041        0.04614650        0.00898480        0.00220421        0.00032245        0.00394193        0.00815504
      22         -0.427201        2.000000        0.23647853        0.08386761        0.00150769        0.10953558        0.02124333        0.00506730        0.00045959        0.00766515        0.02004384
      23         -0.425882        2.000000        0.07443894        0.02509567        0.00063287        0.03654973        0.00656908        0.00217564        0.00025910        0.00230507        0.00625295
      24         -0.424109        2.000000        0.35589631        0.14749494        0.00183727        0.14730391        0.03093781        0.01177762        0.00032948        0.01014541        0.03031728
      25         -0.421224        2.000000        0.38747312        0.17577673        0.00141907        0.13574851        0.03434516        0.01325320        0.00067728        0.01033876        0.03700437
      26         -0.420776        2.000000        0.39735270        0.15591567        0.00132132        0.15484609        0.03713580        0.01177161        0.00050384        0.01135365        0.03963279
      27         -0.418843        2.000000        0.39509318        0.09412685        0.00126769        0.19156361        0.06834360        0.00635318        0.00098093        0.01576696        0.03100390
      28         -0.418052        2.000000        0.04574013        0.01711746        0.00042989        0.01749225        0.00377126        0.00136686        0.00021325        0.00155965        0.00611154
      29         -0.417605        2.000000        0.41196631        0.16246478        0.00137522        0.12126862        0.04316609        0.01348999        0.00121691        0.00968499        0.05560650
      30         -0.416749        2.000000        0.37270739        0.11323326        0.00100251        0.18420878        0.03448605        0.00819274        0.00083313        0.01155460        0.03416824
      31         -0.416354        2.000000        0.39083211        0.21183052        0.00091181        0.08264468        0.02612012        0.01500060        0.00139397        0.00670508        0.05919869
      32         -0.412420        2.000000        0.40620917        0.12284002        0.00179088        0.15352853        0.05810096        0.00980533        0.00137977        0.01250837        0.04530763
      33         -0.376712        2.000000        0.00675337        0.00311228        0.00252106        0.00768947        0.00027289        0.00030671        0.00058448        0.00056893        0.00013774
      34         -0.374033        2.000000        0.00968869        0.00438380        0.00314930        0.01090522        0.00024568        0.00047651        0.00098676        0.00088265        0.00015328
      35         -0.371673        2.000000        0.02277288        0.03192141        0.00801641        0.00142789        0.00024188        0.00270151        0.00187480        0.00043775        0.00073850
      36         -0.368010        2.000000        0.03109208        0.01249091        0.00972470        0.02665720        0.00164590        0.00192360        0.00217805        0.00346527        0.00085542
      37         -0.364609        2.000000        0.16660505        0.12209262        0.02434035        0.10731518        0.00364449        0.01233455        0.00838479        0.01007937        0.00523415
      38         -0.364277        2.000000        0.07379841        0.04979695        0.01375645        0.04431881        0.00261442        0.00646314        0.00407339        0.00438286        0.00333563
      39         -0.363327        2.000000        0.21265587        0.15960050        0.02956325        0.12611278        0.00580519        0.01657749        0.00970281        0.01340843        0.00661410
      40         -0.362628        2.000000        0.25731622        0.09081861        0.03665673        0.26261499        0.00979714        0.01084584        0.01106633        0.02637247        0.00311959
      41         -0.361508        2.000000        0.10706917        0.11051953        0.01799607        0.02505858        0.00394837        0.01131722        0.00637649        0.00382946        0.00576257
      42         -0.360476        2.000000        0.02497794        0.02999929        0.00431305        0.00302675        0.00054740        0.00349404        0.00124460        0.00072935        0.00137118
      43         -0.357485        2.000000        0.07474137        0.03380801        0.01711156        0.03794059        0.00567959        0.00565417        0.00531172        0.00538230        0.00713903
      44         -0.356829        2.000000        0.15541300        0.06824748        0.03221227        0.08042113        0.01609215        0.00861970        0.00991570        0.01267610        0.01152981
      45         -0.355666        2.000000        0.06802288        0.03067814        0.01630876        0.03502788        0.00660751        0.00430651        0.00465321        0.00519696        0.00605018
      46         -0.353549        2.000000        0.30179341        0.16258972        0.06224659        0.11331648        0.01785153        0.02463027        0.01777738        0.01670038        0.04079213
      47         -0.353105        2.000000        0.29878043        0.10163369        0.06764485        0.16567151        0.04176380        0.01563271        0.01777713        0.02651247        0.01502638
      48         -0.351746        2.000000        0.29644502        0.16270956        0.05587354        0.12143439        0.02401803        0.01951023        0.02315328        0.01534010        0.03505716
      49         -0.350869        2.000000        0.27987949        0.13764918        0.06253335        0.12461101        0.02164749        0.02203965        0.01506674        0.01679902        0.03111274
      50         -0.349795        2.000000        0.30037965        0.11769314        0.06559500        0.15753588        0.03733162        0.01550038        0.02078833        0.02206220        0.02087629
      51         -0.341445        2.000000        0.03876809        0.01000984        0.07626970        0.01293483        0.00276969        0.00292120        0.00697613        0.00439384        0.00256875
      52         -0.335618        2.000000        0.05490058        0.01565788        0.13261093        0.00323389        0.00062050        0.00906176        0.00768354        0.00103289        0.00450320
      53         -0.334591        2.000000        0.03381806        0.00301095        0.11788414        0.00358110        0.00116411        0.00282411        0.00617330        0.00270684        0.00110882
      54         -0.332320        2.000000        0.05278192        0.00911145        0.09403807        0.01268026        0.00421328        0.00286877        0.00797514        0.00697365        0.00236195
      55         -0.330556        2.000000        0.05403234        0.00855858        0.10268101        0.00984072        0.00310460        0.00520662        0.00725379        0.00611653        0.00272553
      56         -0.328025        2.000000        0.05339781        0.01375539        0.10617248        0.00785840        0.00235764        0.00519566        0.00742777        0.00543226        0.00325554
      57         -0.327747        2.000000        0.10276904        0.01758659        0.20743071        0.01824460        0.00472619        0.00887568        0.01181175        0.00792386        0.00442576
      58         -0.321949        2.000000        0.15056827        0.03554639        0.19726846        0.03365596        0.00907457        0.01281474        0.01641892        0.01076861        0.00840257
      59         -0.320323        2.000000        0.11414675        0.02385080        0.18058819        0.02223510        0.00625421        0.00858965        0.01164556        0.00983397        0.00580382
      60         -0.319711        2.000000        0.16874091        0.03591015        0.23567648        0.03067702        0.00882729        0.01353486        0.01812470        0.01230321        0.01082220
      61         -0.318089        2.000000        0.13855442        0.02240549        0.19921237        0.03517299        0.00936395        0.00656827        0.01466255        0.01338497        0.00504371
      62         -0.317078        2.000000        0.13293602        0.01839802        0.18018615        0.04226235        0.01028895        0.00538431        0.01494466        0.01487923        0.00448116
      63         -0.314862        2.000000        0.16321491        0.05444838        0.22698181        0.01753258        0.00457832        0.01940587        0.01820602        0.00687629        0.01500244
      64         -0.311311        2.000000        0.10313987        0.00715479        0.28508532        0.01283598        0.00276401        0.00260510        0.00982737        0.00490208        0.00168522
      65         -0.244914        2.000000        0.00577678        0.09792858        0.38014327        0.19506742        0.00455810        0.00500669        0.02128028        0.00713678        0.00458933
      66         -0.243035        2.000000        0.00308239        0.08829430        0.38220840        0.17585927        0.00148937        0.00329501        0.01901679        0.00484606        0.00172985
      67         -0.239491        2.000000        0.00676432        0.17641405        0.38067123        0.08903838        0.00603577        0.00430468        0.01910443        0.00415130        0.00357796
      68         -0.237747        2.000000        0.01132206        0.07311384        0.30523414        0.12492025        0.00972044        0.00745640        0.01232502        0.00582238        0.01351642
      69         -0.235392        2.000000        0.00870376        0.07546567        0.22727973        0.08646842        0.00892246        0.00400513        0.00994418        0.00373687        0.00622894
      70         -0.234353        2.000000        0.01256329        0.09037634        0.29095373        0.10102597        0.01204150        0.00584682        0.01211317        0.00398843        0.00865792
      71         -0.232891        2.000000        0.01198410        0.09143216        0.24355657        0.15100841        0.00819124        0.00895932        0.01823333        0.00215578        0.01368531
      72         -0.231013        2.000000        0.00649505        0.05235033        0.16029903        0.06502699        0.00414489        0.00419468        0.00798835        0.00173453        0.00828609
      73         -0.229796        2.000000        0.01092689        0.08124461        0.21953870        0.12370667        0.00847993        0.00858312        0.00990276        0.00256583        0.01338642
      74         -0.228828        2.000000        0.01093544        0.06874296        0.25328266        0.10683237        0.00949377        0.00555048        0.01612809        0.00341555        0.01029481
      75         -0.228236        2.000000        0.01503890        0.09250000        0.24834567        0.15401235        0.01574792        0.00755663        0.01685639        0.00351786        0.00989455
      76         -0.227216        2.000000        0.01655336        0.06198780        0.30183226        0.18024827        0.01584396        0.00594543        0.01251260        0.00359751        0.01521880
      77         -0.225186        2.000000        0.01010895        0.17547992        0.22226099        0.15517847        0.01649781        0.00829895        0.03086844        0.00668457        0.00788394
      78         -0.222770        2.000000        0.02391812        0.16909001        0.22131301        0.18579765        0.02026480        0.00628632        0.04746680        0.00594896        0.01316926
      79         -0.222559        2.000000        0.01782456        0.15170943        0.17326854        0.18888680        0.01662807        0.00650235        0.02563797        0.00633399        0.01087117
      80         -0.221878        2.000000        0.01726174        0.19240725        0.16811945        0.04173094        0.00717884        0.00403692        0.01878046        0.00481122        0.01772191
      81         -0.221192        2.000000        0.00931086        0.11113384        0.15121823        0.15660161        0.01070088        0.01009553        0.03739586        0.00300059        0.00575372
      82         -0.219609        2.000000        0.01725406        0.22978383        0.16672668        0.18641118        0.01849080        0.00402895        0.02596820        0.01139508        0.01409567
      83         -0.219019        2.000000        0.01902228        0.21396017        0.19874665        0.13487186        0.01600915        0.00917078        0.03629659        0.00715438        0.01513901
      84         -0.218250        2.000000        0.02831263        0.07526591        0.14864242        0.16485744        0.02219011        0.00202135        0.02057899        0.00313358        0.01142880
      85         -0.218096        2.000000        0.01436958        0.09662413        0.11541815        0.12290872        0.01022291        0.00339152        0.01869316        0.00633032        0.00974879
      86         -0.216926        2.000000        0.01968124        0.14186193        0.18105739        0.12730656        0.01355972        0.00468663        0.03208425        0.00447653        0.01700528
      87         -0.216603        2.000000        0.01146054        0.21474555        0.18864250        0.16458807        0.01255549        0.00773940        0.03287686        0.01338058        0.01185220
      88         -0.215938        2.000000        0.01476526        0.24325734        0.11648137        0.14963745        0.01213375        0.00419963        0.02091268        0.01094141        0.01730740
      89         -0.215375        2.000000        0.00776482        0.08025653        0.08741877        0.07565686        0.00942903        0.00538927        0.01802238        0.00410559        0.00538896
      90         -0.214313        2.000000        0.02731542        0.18103858        0.18903904        0.10525428        0.01414704        0.00559248        0.03661745        0.00352661        0.02846315
      91         -0.213668        2.000000        0.00752754        0.06240513        0.16546125        0.04372301        0.00504373        0.00430128        0.02200547        0.00243508        0.00801403
      92         -0.212822        2.000000        0.01856352        0.07166269        0.16083753        0.09425313        0.01229490        0.00432693        0.02684644        0.00488419        0.01213419
      93         -0.212368        2.000000        0.01092229        0.08934528        0.15855094        0.04866940        0.00616160        0.00419881        0.04095494        0.00508762        0.01059301
      94         -0.211460        2.000000        0.02760817        0.19316359        0.17285530        0.10935555        0.01377706        0.00566867        0.02409862        0.00268683        0.03020166
      95         -0.210845        2.000000        0.02145540        0.13272541        0.23336307        0.15832368        0.01749578        0.01096743        0.04328156        0.00695682        0.01589314
      96         -0.210332        2.000000        0.01566538        0.08760833        0.25399873        0.12338417        0.02091597        0.00792045        0.04157227        0.01295388        0.01247857
      97         -0.209911        2.000000        0.00825497        0.04734180        0.08234076        0.06492858        0.00891599        0.00199083        0.00947804        0.00276261        0.00686585
      98         -0.208472        2.000000        0.01096755        0.05978882        0.17295440        0.06023662        0.00873019        0.00377338        0.04720058        0.00300405        0.01151004
      99         -0.207782        2.000000        0.00712986        0.04050692        0.20444249        0.06363777        0.00761844        0.00597525        0.06550079        0.00470441        0.00617446
     100         -0.206847        2.000000        0.01021609        0.06791102        0.14687953        0.07713170        0.01173520        0.00334843        0.04045829        0.00442113        0.00842895
     101         -0.206775        2.000000        0.00920780        0.05863172        0.09995938        0.02892567        0.00347218        0.00247236        0.01810704        0.00274326        0.00945056
     102         -0.205701        2.000000        0.00769272        0.04558424        0.13220776        0.03991738        0.00516555        0.00504218        0.03892777        0.00275776        0.00698457
     103         -0.204872        2.000000        0.00449057        0.03708990        0.10419533        0.05483207        0.00397337        0.00349938        0.02895790        0.00408412        0.00723630
     104         -0.203390        2.000000        0.00625930        0.04340452        0.19062786        0.04476787        0.00611413        0.00578153        0.06019468        0.00600731        0.00382252
     105         -0.203061        2.000000        0.01035952        0.07474996        0.18816741        0.05202247        0.00704143        0.00447717        0.05607768        0.00519826        0.01319936
     106         -0.202549        2.000000        0.01132515        0.09036127        0.16772464        0.11650230        0.00920965        0.01096311        0.03648302        0.00738145        0.01539631
     107         -0.202120        2.000000        0.00572405        0.06374621        0.18447173        0.06932085        0.00935697        0.00699435        0.04408538        0.00400080        0.00722495
     108         -0.200516        2.000000        0.01063900        0.09345914        0.16450014        0.07640615        0.01229241        0.00690187        0.04269279        0.00568861        0.01243913
     109         -0.199837        2.000000        0.00655111        0.06823194        0.16175838        0.04261930        0.00588571        0.00779722        0.03279104        0.00519522        0.00950036
     110         -0.199333        2.000000        0.00726033        0.06472022        0.18722844        0.04679210        0.01042943        0.00544741        0.05559054        0.00636174        0.00624086
     111         -0.198386        2.000000        0.00791025        0.05232090        0.14327678        0.12466491        0.00976080        0.00798870        0.03493368        0.00490106        0.01353509
     112         -0.197775        2.000000        0.00697417        0.03933564        0.09864335        0.06081585        0.00551128        0.00446266        0.02097877        0.00348418        0.00824591
     113         -0.197399        2.000000        0.00416543        0.02910166        0.09490433        0.01957490        0.00432487        0.00289701        0.02375781        0.00381567        0.00370895
     114         -0.196308        2.000000        0.00700855        0.03658759        0.12101794        0.07117102        0.00903933        0.00589661        0.01704411        0.00358480        0.00803597
     115         -0.195258        2.000000        0.01026917        0.11445080        0.18415981        0.06435638        0.02024040        0.00584844        0.05120631        0.00760329        0.00521481
     116         -0.194403        2.000000        0.00478697        0.03717879        0.10939370        0.05189628        0.00485504        0.00411142        0.02303498        0.00503556        0.00872132
     117         -0.194195        2.000000        0.00378653        0.03710357        0.10156377        0.04401455        0.00421086        0.00517640        0.04001181        0.00337957        0.00517517
     118         -0.193196        2.000000        0.00442667        0.01926577        0.09305457        0.03456983        0.00487087        0.00388451        0.02419986        0.00297088        0.00433748
     119         -0.192714        2.000000        0.00851179        0.11105159        0.20737105        0.05783524        0.01676114        0.00822991        0.04145768        0.01092412        0.00825831
     120         -0.191732        2.000000        0.00388391        0.02170117        0.08013280        0.02360598        0.00520920        0.00234318        0.02009207        0.00261151        0.00329343
     121         -0.190947        2.000000        0.00883451        0.11197194        0.17767826        0.06725967        0.01994042        0.00679113        0.03670051        0.00983866        0.00656750
     122         -0.190206        2.000000        0.00279268        0.02160575        0.09827457        0.01278587        0.00299549        0.00218150        0.02416279        0.00223509        0.00333409
     123         -0.188575        2.000000        0.00454763        0.03395102        0.09412537        0.03461461        0.00551568        0.00380067        0.02544982        0.00446245        0.00526520
     124         -0.188018        2.000000        0.00395431        0.03574984        0.14532187        0.03420004        0.00594209        0.00580809        0.04385702        0.00579752        0.00492107
     125         -0.187088        2.000000        0.00353300        0.02208509        0.08795087        0.01491970        0.00286459        0.00222875        0.02544853        0.00201148        0.00430231
     126         -0.184927        2.000000        0.00116899        0.01999349        0.06553363        0.01276817        0.00219012        0.00280221        0.01895263        0.00264113        0.00160800
     127         -0.183511        2.000000        0.00131344        0.01241819        0.04871182        0.01776887        0.00317361        0.00147043        0.01206091        0.00255606        0.00117517
     128         -0.182365        2.000000        0.00403228        0.03596748        0.11054390        0.02994245        0.00642767        0.00390103        0.03308721        0.00364550        0.00338340
     129         -0.180289        2.000000        0.00178941        0.01705808        0.06424886        0.01985367        0.00342445        0.00242682        0.01516810        0.00264010        0.00222832
     130         -0.178107        2.000000        0.00299643        0.02796112        0.06010764        0.02136091        0.00440648        0.00218985        0.01513210        0.00293251        0.00258027
     131         -0.176748        2.000000        0.00343488        0.02349201        0.08706040        0.01302845        0.00266439        0.00327703        0.02697182        0.00310885        0.00387058
     132         -0.175907        2.000000        0.00099201        0.01879726        0.05531280        0.02377839        0.00185945        0.00301867        0.01484260        0.00147233        0.00223697
     133         -0.173835        2.000000        0.00046794        0.01924030        0.02814470        0.00906661        0.00070759        0.00189072        0.00641813        0.00121985        0.00152270
     134         -0.172439        2.000000        0.00071591        0.01274362        0.03021829        0.01377092        0.00205745        0.00168438        0.00644262        0.00140323        0.00082671
     135         -0.171874        2.000000        0.00106754        0.02931093        0.03111738        0.04985339        0.00288270        0.00150929        0.00668925        0.00321073        0.00127306
     136         -0.169404        2.000000        0.00344418        0.03201584        0.07214278        0.04172150        0.00263239        0.00213291        0.02937855        0.00263187        0.00200914
     137         -0.168621        2.000000        0.00142587        0.05496159        0.02519628        0.14358412        0.00318220        0.00296798        0.00889385        0.00553570        0.00200841
     138         -0.167958        2.000000        0.00093624        0.14468953        0.03408185        0.05088601        0.00183692        0.00495351        0.01046151        0.00345873        0.00375690
     139         -0.167344        2.000000        0.00132341        0.41065494        0.03260312        0.14380434        0.00534054        0.01474743        0.00477690        0.00642955        0.00967288
     140         -0.166015        2.000000        0.00190382        0.01667335        0.03691068        0.64430936        0.01415083        0.00248685        0.00942677        0.02342921        0.00353930
     141         -0.163289        2.000000        0.00228466        0.60899296        0.02797578        0.21702567        0.00673906        0.01999175        0.00668873        0.01273363        0.01189911
     142         -0.153824        2.000000        0.00208950        0.06765284        0.01842900        0.73605540        0.07625068        0.00360266        0.00462721        0.02555475        0.00885245
     143         -0.148747        2.000000        0.00096661        0.52122145        0.01279450        0.29660240        0.03257494        0.01547972        0.00217224        0.01064567        0.05691408
     144         -0.146958        2.000000        0.00116407        0.57669518        0.02471611        0.21717049        0.02319351        0.01876330        0.00507102        0.00970670        0.06534763