# Projected DOS for atomic kind H at iteration step i = 0, E(Fermi) =    -0.077624 a.u.
#     MO Eigenvalue [a.u.]      Occupation                 s                py                pz                px
       1         -0.500199        2.000000        0.10657589        0.00103952        0.08166856        0.00078729
       2         -0.487679        2.000000        0.15029357        0.00060343        0.11679089        0.00038439
       3         -0.481914        2.000000        0.09838732        0.00868841        0.07453083        0.00326192
       4         -0.480035        2.000000        0.09735209        0.00418197        0.07262424        0.00849537
       5         -0.475860        2.000000        0.09724514        0.00342515        0.07362430        0.00913589
       6         -0.474358        2.000000        0.10389531        0.00716791        0.06850082        0.00575323
       7         -0.472408        2.000000        0.10327690        0.01144000        0.06824113        0.00309922
       8         -0.471272        2.000000        0.10864987        0.00763445        0.08681440        0.00375030
       9         -0.468547        2.000000        0.10866198        0.00591918        0.06711559        0.01016210
      10         -0.467309        2.000000        0.09996019        0.00371177        0.09022014        0.00802240
      11         -0.465162        2.000000        0.11204921        0.00351354        0.08682365        0.00801373
      12         -0.463178        2.000000        0.10874890        0.00614254        0.08652298        0.00730373
      13         -0.460576        2.000000        0.11704166        0.00707782        0.08143623        0.00625934
      14         -0.458071        2.000000        0.11379106        0.01013566        0.07687649        0.00482395
      15         -0.438913        2.000000        0.10443459        0.01119514        0.06086919        0.00493898
      16         -0.437655        2.000000        0.10207502        0.00495686        0.06037135        0.01158862
      17         -0.432938        2.000000        0.10904043        0.00601721        0.06001328        0.00823835
      18         -0.432260        2.000000        0.10590184        0.00926780        0.05807768        0.01000799
      19         -0.430855        2.000000        0.10870871        0.00896608        0.05489692        0.00776845
      20         -0.429225        2.000000        0.10541767        0.00953251        0.06157550        0.00573430
      21         -0.428191        2.000000        0.10710175        0.00477112        0.06271744        0.00744941
      22         -0.427583        2.000000        0.10979621        0.00961603        0.05964763        0.00382027
      23         -0.427035        2.000000        0.10747436        0.00582865        0.06251415        0.00973050
      24         -0.425268        2.000000        0.10729794        0.00788731        0.05940120        0.00548325
      25         -0.423514        2.000000        0.11423852        0.00444730        0.05725537        0.00968290
      26         -0.421647        2.000000        0.11085692        0.01032548        0.05590201        0.00496751
      27         -0.420808        2.000000        0.11438307        0.00752760        0.05685247        0.00691377
      28         -0.419601        2.000000        0.11530910        0.00469016        0.05555692        0.01095850
      29         -0.418989        2.000000        0.11119072        0.00624504        0.05919272        0.00977110
      30         -0.418289        2.000000        0.11583161        0.00898074        0.05823517        0.00462678
      31         -0.416538        2.000000        0.11019788        0.00784156        0.05655590        0.00678028
      32         -0.412597        2.000000        0.11791613        0.00507381        0.05620590        0.01000144
      33         -0.376660        2.000000        0.16201417        0.00618942        0.04043939        0.01422347
      34         -0.373567        2.000000        0.15888823        0.00729062        0.04112213        0.01264042
      35         -0.372107        2.000000        0.16416399        0.01514607        0.03868808        0.00469872
      36         -0.367226        2.000000        0.17708610        0.00602396        0.04036849        0.00696527
      37         -0.366069        2.000000        0.16002870        0.00887145        0.04078175        0.00467621
      38         -0.364787        2.000000        0.16990112        0.00608621        0.04113419        0.00626664
      39         -0.363950        2.000000        0.15718874        0.00428856        0.03740652        0.00948812
      40         -0.363096        2.000000        0.16466788        0.00594526        0.04293612        0.00547510
      41         -0.360849        2.000000        0.17696602        0.00428613        0.04221407        0.00653709
      42         -0.360425        2.000000        0.17921702        0.00496605        0.04087589        0.00488743
      43         -0.357849        2.000000        0.17880694        0.00825919        0.04181557        0.00443073
      44         -0.357280        2.000000        0.18314639        0.00511340        0.04135726        0.00564319
      45         -0.356994        2.000000        0.18501596        0.00418190        0.04122543        0.00562105
      46         -0.356541        2.000000        0.17530502        0.00447499        0.04357450        0.00671889
      47         -0.354761        2.000000        0.18226673        0.00574597        0.04018210        0.00489317
      48         -0.353649        2.000000        0.17722578        0.00446460        0.03958735        0.00642826
      49         -0.352488        2.000000        0.17933061        0.00642704        0.04182987        0.00669581
      50         -0.349695        2.000000        0.18224711        0.00449878        0.03717758        0.00661241
      51         -0.341039        2.000000        0.29621183        0.00281569        0.02798604        0.00309176
      52         -0.336706        2.000000        0.29965233        0.00472686        0.02701283        0.00269570
      53         -0.333905        2.000000        0.31057843        0.00162683        0.01625353        0.00227706
      54         -0.332255        2.000000        0.30020315        0.00259249        0.01948120        0.00370745
      55         -0.331262        2.000000        0.30243937        0.00313864        0.02032403        0.00316439
      56         -0.329621        2.000000        0.29759384        0.00190399        0.02026802        0.00494034
      57         -0.329250        2.000000        0.30248946        0.00242259        0.02296654        0.00254371
      58         -0.322403        2.000000        0.29461183        0.00191801        0.04099558        0.00186576
      59         -0.321172        2.000000        0.28259476        0.00277407        0.04580727        0.00248177
      60         -0.319944        2.000000        0.28577354        0.00302692        0.04633747        0.00224913
      61         -0.319458        2.000000        0.28065811        0.00155024        0.04540648        0.00265385
      62         -0.318513        2.000000        0.28874164        0.00176872        0.04873335        0.00463904
      63         -0.315487        2.000000        0.27862402        0.00315489        0.05145723        0.00282936
      64         -0.308884        2.000000        0.29222103        0.00216267        0.05028819        0.00248278
      65         -0.244277        2.000000        0.23008513        0.01122708        0.00233898        0.02694358
      66         -0.243250        2.000000        0.23481580        0.00776978        0.00170017        0.02543844
      67         -0.241296        2.000000        0.21919003        0.02530014        0.00134741        0.00937145
      68         -0.238445        2.000000        0.20361718        0.01544029        0.00504062        0.02781626
      69         -0.236516        2.000000        0.20154067        0.01826424        0.00512034        0.02372270
      70         -0.234913        2.000000        0.20574604        0.02233885        0.00466857        0.02307123
      71         -0.233428        2.000000        0.17888123        0.01836162        0.00290616        0.02275552
      72         -0.231653        2.000000        0.22615030        0.01708336        0.00326600        0.02183336
      73         -0.230680        2.000000        0.20428253        0.01408111        0.00242891        0.02823539
      74         -0.228737        2.000000        0.20584250        0.01678310        0.00358249        0.02115154
      75         -0.228075        2.000000        0.21096382        0.02212104        0.00344478        0.01255858
      76         -0.227598        2.000000        0.19903387        0.01843361        0.00392810        0.02141456
      77         -0.225809        2.000000        0.18565715        0.01504373        0.00408594        0.01707470
      78         -0.224864        2.000000        0.16748190        0.01706466        0.00411661        0.01851988
      79         -0.223472        2.000000        0.18445235        0.01718055        0.00394739        0.01820203
      80         -0.222632        2.000000        0.20466273        0.01303941        0.00774871        0.01928549
      81         -0.222269        2.000000        0.18600761        0.01620059        0.00641201        0.01357877
      82         -0.220982        2.000000        0.21406576        0.02404899        0.00391674        0.01023978
      83         -0.220057        2.000000        0.17438093        0.02272481        0.00440788        0.01529856
      84         -0.218723        2.000000        0.18176302        0.02006759        0.00508981        0.01752449
      85         -0.218349        2.000000        0.15775268        0.01321311        0.00521524        0.02231354
      86         -0.217902        2.000000        0.18047808        0.01637058        0.00812642        0.01785296
      87         -0.217353        2.000000        0.15559756        0.02048556        0.00464411        0.02000103
      88         -0.216530        2.000000        0.18829448        0.01752969        0.00368097        0.01672686
      89         -0.215739        2.000000        0.20546494        0.01846135        0.00450626        0.01974696
      90         -0.215100        2.000000        0.16754789        0.01845787        0.00475972        0.01453789
      91         -0.214018        2.000000        0.20096397        0.01706257        0.00645730        0.01564152
      92         -0.213116        2.000000        0.25884759        0.01560874        0.00883380        0.01452889
      93         -0.212682        2.000000        0.18928906        0.01813013        0.00566766        0.01635825
      94         -0.212161        2.000000        0.16910427        0.01742351        0.00683043        0.02014148
      95         -0.210668        2.000000        0.24225403        0.01142873        0.00542333        0.01646794
      96         -0.210159        2.000000        0.20528657        0.01354297        0.00583903        0.01773676
      97         -0.209510        2.000000        0.26200018        0.01297667        0.00762968        0.01662072
      98         -0.209391        2.000000        0.22465463        0.01569079        0.00545427        0.01596558
      99         -0.207137        2.000000        0.22397016        0.01337896        0.00774616        0.01667119
     100         -0.206816        2.000000        0.25972662        0.00825308        0.00878398        0.01580136
     101         -0.206547        2.000000        0.22814227        0.01959843        0.00706678        0.01331968
     102         -0.205882        2.000000        0.26202889        0.01087293        0.01063045        0.01199869
     103         -0.205036        2.000000        0.26194953        0.01553513        0.00719249        0.01234958
     104         -0.203394        2.000000        0.19330099        0.01992044        0.00414683        0.01553388
     105         -0.203122        2.000000        0.27751562        0.00916694        0.00967343        0.01359973
     106         -0.202428        2.000000        0.20722221        0.01288521        0.00559548        0.01904118
     107         -0.201572        2.000000        0.22785811        0.01638950        0.00702189        0.01330309
     108         -0.201190        2.000000        0.19233454        0.01816254        0.00802776        0.01494630
     109         -0.200400        2.000000        0.24706967        0.01180393        0.00916809        0.01458209
     110         -0.199721        2.000000        0.26127461        0.01373731        0.01027648        0.01226985
     111         -0.198597        2.000000        0.24135259        0.01331969        0.00949000        0.01344045
     112         -0.198091        2.000000        0.21588819        0.01368588        0.00506229        0.01832171
     113         -0.197420        2.000000        0.20992195        0.01642891        0.00512624        0.01380689
     114         -0.196697        2.000000        0.23555203        0.01514810        0.01016784        0.01404104
     115         -0.195965        2.000000        0.19123581        0.01290421        0.00586663        0.01851406
     116         -0.195523        2.000000        0.23126959        0.01296708        0.00649473        0.01446671
     117         -0.194511        2.000000        0.21028583        0.02037386        0.00673440        0.00890132
     118         -0.194227        2.000000        0.26230891        0.01396963        0.00771574        0.01084584
     119         -0.192586        2.000000        0.24272639        0.01600632        0.00793510        0.01181404
     120         -0.192057        2.000000        0.19433806        0.02042066        0.00620576        0.01555561
     121         -0.191533        2.000000        0.25317774        0.01499212        0.00623457        0.01487016
     122         -0.190663        2.000000        0.23940605        0.01330645        0.00531863        0.01621027
     123         -0.189589        2.000000        0.23825355        0.01507562        0.00644594        0.01446522
     124         -0.188778        2.000000        0.25168139        0.01122432        0.00853851        0.01593915
     125         -0.186537        2.000000        0.18448312        0.01630709        0.00555003        0.01904500
     126         -0.184000        2.000000        0.20992038        0.02190308        0.00751501        0.01186818
     127         -0.183395        2.000000        0.27400305        0.00907110        0.00547797        0.01425776
     128         -0.181433        2.000000        0.34060889        0.00901376        0.00727193        0.00966818
     129         -0.179677        2.000000        0.25407959        0.01772920        0.00729594        0.01041992
     130         -0.178847        2.000000        0.28352534        0.00765802        0.00878328        0.01416756
     131         -0.178180        2.000000        0.28471029        0.01656272        0.00778138        0.00636085
     132         -0.176966        2.000000        0.24059481        0.01574831        0.00995628        0.01088057
     133         -0.174830        2.000000        0.26554941        0.01249309        0.00969001        0.01561426
     134         -0.173856        2.000000        0.19004942        0.01285641        0.00760703        0.02253942
     135         -0.172197        2.000000        0.28715119        0.01080162        0.01008750        0.01323535
     136         -0.169239        2.000000        0.08162021        0.02555219        0.00382775        0.01456477
     137         -0.169131        2.000000        0.21050201        0.01646182        0.01028467        0.01490299
     138         -0.168422        2.000000        0.30979916        0.00874860        0.01271167        0.01069380
     139         -0.167545        2.000000        0.23554483        0.01919362        0.00961401        0.01011474
     140         -0.166210        2.000000        0.09503938        0.00927978        0.00350701        0.03014515
     141         -0.164017        2.000000        0.03419969        0.03277356        0.00174687        0.01091423
     142         -0.154262        2.000000        0.01727157        0.00403923        0.00174709        0.03722615
     143         -0.149496        2.000000        0.00634089        0.02893884        0.00133708        0.01392130
     144         -0.148424        2.000000        0.01116383        0.03317655        0.00153210        0.01022065
     145         -0.146497        2.000000        0.00603429        0.03201721        0.00102559        0.01079302
     146         -0.145699        2.000000        0.00831882        0.02434248        0.00185257        0.01890817
     147         -0.141478        2.000000        0.00439978        0.00952003        0.00135729        0.03816013
     148         -0.140786        2.000000        0.00727338        0.00548039        0.00175714        0.03971009
     149         -0.137834        2.000000        0.01063963        0.03945990        0.00299137        0.01213758
     150         -0.135706        2.000000        0.00826350        0.04003486        0.00232837        0.01254319
     151         -0.123190        2.000000        0.00408236        0.00731927        0.00147858        0.04098752
     152         -0.119804        2.000000        0.00257450        0.00243292        0.00094916        0.03617747
     153         -0.118502        2.000000        0.00372969        0.03428087        0.00205247        0.01482834
     154         -0.118065        2.000000        0.00302090        0.03796473        0.00084014        0.00371359
     155         -0.116912        2.000000        0.00300870        0.01820189        0.00129327        0.03030642
     156         -0.114363        2.000000        0.00510365        0.03686966        0.00175943        0.01270354
     157         -0.111045        2.000000        0.00330401        0.02564727        0.00178398        0.02540982
     158         -0.109493        2.000000        0.00326403        0.03449856        0.00169560        0.01628652
     159         -0.084269        2.000000        0.00339320        0.00153277        0.00066119        0.04418831
     160         -0.077624        2.000000        0.00298254        0.04700619        0.00102500        0.00149373
     161         -0.047067        0.000000        0.03122761        0.00166152        0.01407774        0.00189593
     162         -0.043371        0.000000        0.00533424        0.00651512        0.01423312        0.00711667
     163         -0.041225        0.000000        0.00522850        0.00868598        0.01255998        0.00994450
     164         -0.038769        0.000000        0.00596811        0.00990174        0.01421206        0.01106816
     165         -0.036247        0.000000        0.01201890        0.00304713        0.01346937        0.00261193
     166         -0.030662        0.000000        0.01361314        0.02116285        0.01393647        0.00782025
     167         -0.029492        0.000000        0.01393764        0.01139997        0.01196453        0.02116753
     168         -0.025728        0.000000        0.01447657        0.01128291        0.01382570        0.02261327
     169         -0.023739        0.000000        0.01486471        0.01269544        0.01605785        0.02119602
     170         -0.022064        0.000000        0.01667963        0.00995890        0.01762796        0.02125008
     171         -0.021451        0.000000        0.01430195        0.01307045        0.01741408        0.01593785
     172         -0.018552        0.000000        0.01398231        0.02096520        0.01821499        0.01677528
     173         -0.017716        0.000000        0.01462355        0.02294179        0.01420103        0.01699704
     174         -0.016501        0.000000        0.01991883        0.02313644        0.01833827        0.01254995
     175         -0.004498        0.000000        0.00963328        0.01832669        0.02124866        0.03207342
     176         -0.000169        0.000000        0.01148095        0.03520989        0.02348094        0.01450286
     177          0.000517        0.000000        0.01230917        0.02658610        0.01959203        0.02715854
     178          0.004471        0.000000        0.01188594        0.02049831        0.02535103        0.02494677
     179          0.005000        0.000000        0.01427325        0.02290097        0.02537926        0.02777495
     180          0.007253        0.000000        0.01923398        0.01651509        0.03066830        0.03234678
     181          0.020887        0.000000        0.02826973        0.02590655        0.02703258        0.07734685
     182          0.022518        0.000000        0.04256386        0.05775344        0.03846359        0.08118676
     183          0.023500        0.000000        0.06662600        0.06424484        0.06100135        0.10523140
     184          0.025761        0.000000        0.02114784        0.03831846        0.01832487        0.05775275
     185          0.030124        0.000000        0.08006269        0.14889102        0.06094656        0.04733340
     186          0.034109        0.000000        0.08020940        0.07536209        0.04801872        0.07544506
     187          0.038785        0.000000        0.07198301        0.04197409        0.05502160        0.10973284
     188          0.040520        0.000000        0.06700674        0.05718204        0.04694541        0.08495732
     189          0.041893        0.000000        0.06828746        0.04993479        0.05774886        0.10061712
     190          0.043584        0.000000        0.07226177        0.09272943        0.06779759        0.07701901
     191          0.045336        0.000000        0.08144283        0.06958386        0.05056598        0.09032973
     192          0.046095        0.000000        0.07212055        0.07197949        0.04672428        0.07658734
     193          0.050777        0.000000        0.06031172        0.09003844        0.04850338        0.08000831
     194          0.053320        0.000000        0.06725858        0.10360945        0.06247642        0.07032370
     195          0.054277        0.000000        0.07227693        0.09586029        0.06660306        0.07718162
     196          0.055368        0.000000        0.07362654        0.08953589        0.06211545        0.05831953
     197          0.056596        0.000000        0.06357878        0.06427875        0.04876643        0.06380932
     198          0.058336        0.000000        0.05211854        0.09423392        0.05851635        0.04562181
     199          0.061004        0.000000        0.05107603        0.07178030        0.05449651        0.05690951
     200          0.061641        0.000000        0.09958194        0.05436315        0.06212253        0.06040509
     201          0.063796        0.000000        0.06920774        0.06737522        0.05477182        0.06811722
     202          0.065531        0.000000        0.07610023        0.05609334        0.04984514        0.06127935
     203          0.066275        0.000000        0.06589589        0.05880309        0.04456883        0.05413229
     204          0.066709        0.000000        0.09107911        0.04545597        0.04144111        0.05185212
     205          0.068294        0.000000        0.07575111        0.03529949        0.03793076        0.06679638
     206          0.070083        0.000000        0.08267214        0.04762706        0.04630228        0.07060638
     207          0.070935        0.000000        0.06963822        0.06031361        0.04377860        0.05745551
     208          0.071976        0.000000        0.08654517        0.04624254        0.04622270        0.04841785
     209          0.072914        0.000000        0.05719635        0.05467260        0.03644056        0.05081913
     210          0.073238        0.000000        0.08979473        0.04218132        0.03803241        0.05398069
