# Projected DOS for atomic kind Ge at iteration step i = 0, E(Fermi) =    -0.079565 a.u.
#     MO Eigenvalue [a.u.]      Occupation                 s                py                pz                px               d-2               d-1                d0               d+1               d+2
       1         -0.501251        2.000000        0.75245196        0.00675138        0.02067837        0.00616495        0.00083227        0.00053321        0.00757144        0.00072245        0.00108460
       2         -0.483653        2.000000        0.04506090        0.00291277        0.00344436        0.00466050        0.00047104        0.00015626        0.00048891        0.00033056        0.00033328
       3         -0.482794        2.000000        0.62668344        0.03571297        0.01325801        0.06941755        0.00639601        0.00199581        0.00345849        0.00379162        0.00357692
       4         -0.480732        2.000000        0.65063670        0.07436153        0.01419694        0.04106868        0.00405110        0.00361612        0.00252779        0.00242037        0.00719372
       5         -0.476352        2.000000        0.65249645        0.04465719        0.00952777        0.07233260        0.00708380        0.00224201        0.00357531        0.00453999        0.00499542
       6         -0.475104        2.000000        0.64861136        0.06394478        0.00957320        0.05262353        0.00523830        0.00320280        0.00299612        0.00324021        0.00685175
       7         -0.472746        2.000000        0.65304276        0.08964544        0.00952195        0.02573229        0.00337012        0.00504451        0.00363778        0.00141891        0.00889079
       8         -0.468148        2.000000        0.62959903        0.03515994        0.00791833        0.08394227        0.00808473        0.00189387        0.00284406        0.00445708        0.00337583
       9         -0.465952        2.000000        0.01892392        0.00142936        0.00159012        0.00175378        0.00023855        0.00011410        0.00030365        0.00023795        0.00019267
      10         -0.462379        2.000000        0.01290960        0.00111533        0.00164491        0.00095983        0.00015344        0.00012696        0.00029246        0.00009998        0.00020120
      11         -0.460884        2.000000        0.01043509        0.00063068        0.00132622        0.00104982        0.00017356        0.00007037        0.00023723        0.00011157        0.00009310
      12         -0.459799        2.000000        0.00815285        0.00047431        0.00159857        0.00085509        0.00013510        0.00004876        0.00026463        0.00010589        0.00007010
      13         -0.457220        2.000000        0.00565720        0.00032704        0.00152556        0.00048449        0.00007600        0.00007085        0.00019761        0.00005137        0.00007740
      14         -0.454684        2.000000        0.00295685        0.00041397        0.00091774        0.00021262        0.00003923        0.00003514        0.00013799        0.00004157        0.00006204
      15         -0.440479        2.000000        0.54902991        0.13699634        0.00289379        0.08006130        0.01302521        0.00838112        0.00090351        0.00593446        0.01666860
      16         -0.436430        2.000000        0.54315179        0.07098453        0.00228544        0.14502520        0.01692397        0.00570757        0.00072164        0.00948170        0.01314201
      17         -0.435553        2.000000        0.54856658        0.07556103        0.00148590        0.13186133        0.01748445        0.00607242        0.00033066        0.01058125        0.01583272
      18         -0.432662        2.000000        0.54423072        0.10800626        0.00193416        0.10824743        0.01854508        0.00790778        0.00088866        0.00733685        0.01260818
      19         -0.431075        2.000000        0.54203029        0.12173901        0.00158693        0.09033488        0.01455217        0.00707707        0.00045231        0.00600737        0.01737379
      20         -0.429835        2.000000        0.55548672        0.12050533        0.00290330        0.06612650        0.01482669        0.00855985        0.00085822        0.00444374        0.02593104
      21         -0.429181        2.000000        0.54610924        0.08627759        0.00164213        0.12071321        0.02034435        0.00635228        0.00047599        0.00779265        0.01583739
      22         -0.425169        2.000000        0.45476275        0.11166393        0.00114269        0.06387151        0.01125354        0.00628921        0.00040301        0.00417656        0.01993136
      23         -0.423894        2.000000        0.08961566        0.01747830        0.00072875        0.01661433        0.00282923        0.00120675        0.00006810        0.00109610        0.00310014
      24         -0.421266        2.000000        0.05431676        0.00486341        0.00045538        0.01424509        0.00248782        0.00029799        0.00005929        0.00113432        0.00108676
      25         -0.420734        2.000000        0.48935051        0.06011344        0.00258373        0.11031478        0.02117689        0.00441303        0.00062044        0.00755985        0.01247137
      26         -0.419163        2.000000        0.03198567        0.00557341        0.00080467        0.00654427        0.00125688        0.00042838        0.00010614        0.00047127        0.00091890
      27         -0.417737        2.000000        0.00461574        0.00087091        0.00037732        0.00097908        0.00013593        0.00013526        0.00004276        0.00006250        0.00019041
      28         -0.417358        2.000000        0.00344234        0.00076007        0.00045674        0.00068363        0.00009622        0.00012600        0.00004702        0.00008526        0.00012422
      29         -0.416074        2.000000        0.00091959        0.00019861        0.00014451        0.00028867        0.00004373        0.00002828        0.00002317        0.00004973        0.00002756
      30         -0.413963        2.000000        0.00240754        0.00040359        0.00032674        0.00060211        0.00009248        0.00003748        0.00003673        0.00007201        0.00008325
      31         -0.413046        2.000000        0.00287271        0.00067844        0.00044946        0.00065751        0.00011173        0.00004958        0.00003953        0.00008064        0.00006979
      32         -0.411567        2.000000        0.00104938        0.00022318        0.00032271        0.00065572        0.00003065        0.00001855        0.00004039        0.00003148        0.00002133
      33         -0.377601        2.000000        0.37879876        0.08340924        0.03158153        0.21923039        0.01037952        0.00441476        0.00771911        0.01846308        0.00353216
      34         -0.375300        2.000000        0.38522110        0.09882173        0.03718463        0.18446641        0.01006278        0.00683635        0.00946633        0.01585799        0.00609199
      35         -0.373071        2.000000        0.36827755        0.22146600        0.05841343        0.02877730        0.00261663        0.02074585        0.00528408        0.00602179        0.01238638
      36         -0.366392        2.000000        0.40008741        0.10037716        0.06103212        0.10690807        0.01710961        0.01163576        0.00765228        0.01240192        0.01072260
      37         -0.364410        2.000000        0.34328559        0.08491103        0.05675766        0.11623144        0.01442441        0.01025416        0.00635312        0.01172555        0.00901941
      38         -0.363557        2.000000        0.03479852        0.00769695        0.00452762        0.01302135        0.00183536        0.00072694        0.00077875        0.00143632        0.00082589
      39         -0.362755        2.000000        0.38860265        0.11211234        0.04447515        0.10586691        0.01322701        0.01215223        0.01112444        0.00992106        0.01619273
      40         -0.361536        2.000000        0.30577717        0.07788690        0.03987076        0.09758817        0.01385681        0.00690870        0.00883099        0.01007387        0.00868277
      41         -0.361375        2.000000        0.20504176        0.06213840        0.02834050        0.05986608        0.00646216        0.00555341        0.00545406        0.00605068        0.01038396
      42         -0.360687        2.000000        0.15733239        0.04558753        0.02442175        0.04127988        0.00409668        0.00464602        0.00365102        0.00459774        0.00747059
      43         -0.359931        2.000000        0.21603569        0.08723755        0.02730200        0.04395010        0.00471447        0.00842320        0.00588428        0.00481030        0.01025318
      44         -0.358357        2.000000        0.35951791        0.10549484        0.04474117        0.11203767        0.01201523        0.01243518        0.01101090        0.01003007        0.01464890
      45         -0.354492        2.000000        0.02488215        0.00724118        0.00395592        0.00760331        0.00101704        0.00056325        0.00050599        0.00081013        0.00094297
      46         -0.352624        2.000000        0.02272420        0.00800183        0.00326094        0.00660493        0.00069398        0.00073954        0.00049331        0.00058833        0.00099002
      47         -0.351445        2.000000        0.00955949        0.00231469        0.00524580        0.00279036        0.00031996        0.00027775        0.00037955        0.00025923        0.00022242
      48         -0.350956        2.000000        0.01141484        0.00261097        0.00450747        0.00362685        0.00045562        0.00036457        0.00027920        0.00031451        0.00034765
      49         -0.348668        2.000000        0.00495396        0.00126654        0.00351811        0.00126945        0.00015058        0.00014862        0.00024462        0.00017154        0.00015582
      50         -0.346756        2.000000        0.00982823        0.00187337        0.00791445        0.00237043        0.00028781        0.00025454        0.00035556        0.00031737        0.00020338
      51         -0.343833        2.000000        0.19811028        0.01856835        0.22656240        0.02855668        0.00414757        0.00478742        0.00825693        0.00665021        0.00301585
      52         -0.337042        2.000000        0.21918254        0.03754000        0.21646427        0.01838771        0.00384257        0.00956733        0.01017351        0.00480902        0.00660125
      53         -0.336497        2.000000        0.23690928        0.02143928        0.23436942        0.03579026        0.00668140        0.00503719        0.01090189        0.00830616        0.00316172
      54         -0.333356        2.000000        0.24333757        0.03317367        0.20851784        0.03496232        0.00521027        0.00623548        0.01344075        0.00813139        0.00586301
      55         -0.331311        2.000000        0.13685663        0.01001120        0.15011360        0.02480510        0.00430838        0.00183711        0.00950229        0.00571751        0.00170852
      56         -0.329853        2.000000        0.15407235        0.02960109        0.14624700        0.01237394        0.00166565        0.00670089        0.01032120        0.00202624        0.00555112
      57         -0.324867        2.000000        0.17136163        0.01912898        0.18310898        0.03236235        0.00498473        0.00455104        0.01069406        0.00545175        0.00297131
      58         -0.321911        2.000000        0.06084591        0.01150379        0.04709668        0.00832295        0.00124205        0.00213679        0.00310326        0.00114932        0.00182471
      59         -0.319668        2.000000        0.09545730        0.01825502        0.06219653        0.01415637        0.00216798        0.00290476        0.00581937        0.00194084        0.00311421
      60         -0.319162        2.000000        0.04781186        0.00446244        0.03445118        0.01170270        0.00166797        0.00108675        0.00238191        0.00166020        0.00066086
      61         -0.317056        2.000000        0.11021035        0.02126946        0.07750509        0.01386846        0.00232274        0.00314676        0.00631815        0.00329899        0.00332050
      62         -0.316969        2.000000        0.05749408        0.00768046        0.04055821        0.00995461        0.00161566        0.00150377        0.00324621        0.00187569        0.00119508
      63         -0.314012        2.000000        0.07305683        0.01116181        0.05514625        0.01314224        0.00192763        0.00240251        0.00411500        0.00194036        0.00192521
      64         -0.311564        2.000000        0.08863144        0.00446857        0.14652966        0.00596535        0.00107758        0.00061028        0.00529099        0.00125952        0.00053056
      65         -0.242657        2.000000        0.00348955        0.01676035        0.03196345        0.01900733        0.00034387        0.00065734        0.00187648        0.00077496        0.00079127
      66         -0.241633        2.000000        0.00093366        0.00375058        0.01154619        0.00671549        0.00017669        0.00018130        0.00040034        0.00032266        0.00021022
      67         -0.239094        2.000000        0.00210680        0.02667805        0.04055913        0.01004117        0.00060133        0.00081593        0.00159824        0.00027411        0.00049593
      68         -0.236318        2.000000        0.00961311        0.05269934        0.14309468        0.07945167        0.00390962        0.00137708        0.00511926        0.00131368        0.00337801
      69         -0.235573        2.000000        0.00794236        0.12385622        0.16799623        0.05572360        0.00336745        0.00081165        0.00533249        0.00071223        0.00233636
      70         -0.233292        2.000000        0.00725835        0.06111030        0.20575534        0.12608959        0.00128144        0.00085738        0.00668957        0.00119712        0.00228421
      71         -0.232390        2.000000        0.00584186        0.04291464        0.12343389        0.06998766        0.00077150        0.00074118        0.00443270        0.00098843        0.00199733
      72         -0.230422        2.000000        0.00383326        0.06264520        0.10023452        0.02292567        0.00154918        0.00091057        0.00356420        0.00050076        0.00131255
      73         -0.228593        2.000000        0.00514121        0.05261322        0.13236231        0.03581959        0.00211194        0.00086294        0.00565880        0.00079722        0.00167200
      74         -0.227855        2.000000        0.00511270        0.04677495        0.15128345        0.06244156        0.00151417        0.00081463        0.00671301        0.00078525        0.00189340
      75         -0.226246        2.000000        0.00604927        0.06402134        0.16373842        0.07023179        0.00149997        0.00068949        0.00500069        0.00137292        0.00311388
      76         -0.225979        2.000000        0.00428773        0.01649404        0.06897681        0.03813661        0.00120148        0.00087167        0.00220869        0.00078098        0.00126960
      77         -0.224346        2.000000        0.00364430        0.02560609        0.07110738        0.02711393        0.00139931        0.00035051        0.00508683        0.00051363        0.00073896
      78         -0.221976        2.000000        0.00687662        0.06581560        0.12032751        0.02496304        0.00283111        0.00057276        0.00335786        0.00060109        0.00447854
      79         -0.221299        2.000000        0.00480552        0.04306786        0.12372077        0.03143924        0.00198058        0.00096329        0.00533769        0.00099894        0.00291818
      80         -0.220625        2.000000        0.00723853        0.08631721        0.18058646        0.07015903        0.00376426        0.00183043        0.00931252        0.00260808        0.00411008
      81         -0.219782        2.000000        0.00567654        0.07916781        0.18898373        0.03338852        0.00265408        0.00152752        0.02070899        0.00157347        0.00289335
      82         -0.218876        2.000000        0.00655779        0.06119820        0.15013236        0.03000276        0.00304945        0.00095142        0.00931672        0.00111116        0.00264226
      83         -0.218540        2.000000        0.00672632        0.02646438        0.04461485        0.02490545        0.00212713        0.00068264        0.00672922        0.00072666        0.00150819
      84         -0.218013        2.000000        0.01278229        0.09226881        0.18863529        0.12638348        0.00621643        0.00259141        0.01048172        0.00290764        0.00546547
      85         -0.217811        2.000000        0.01344350        0.10495787        0.18364120        0.04234221        0.00557005        0.00113973        0.01175100        0.00205308        0.00516634
      86         -0.217249        2.000000        0.00610347        0.04008593        0.08931833        0.02695540        0.00250564        0.00065249        0.00741236        0.00101345        0.00178935
      87         -0.215891        2.000000        0.00788350        0.06959768        0.17068261        0.03374061        0.00486755        0.00114706        0.00922603        0.00159339        0.00303427
      88         -0.215542        2.000000        0.00773256        0.04765288        0.09493447        0.04841887        0.00241503        0.00112363        0.01051539        0.00158905        0.00244692
      89         -0.214650        2.000000        0.00528394        0.02596162        0.08757318        0.03723931        0.00209378        0.00145374        0.00649141        0.00082689        0.00260173
      90         -0.213925        2.000000        0.00690110        0.04330684        0.12641819        0.03385722        0.00366201        0.00067994        0.00593813        0.00055832        0.00290327
      91         -0.213373        2.000000        0.01168724        0.05274100        0.12947138        0.04489933        0.00326919        0.00156317        0.01247740        0.00115584        0.00333744
      92         -0.212640        2.000000        0.00961106        0.03400717        0.13590331        0.05821028        0.00494588        0.00137360        0.01039263        0.00273627        0.00194654
      93         -0.211508        2.000000        0.00845514        0.03849473        0.16731625        0.07257858        0.00362947        0.00218996        0.02346332        0.00172013        0.00188452
      94         -0.211198        2.000000        0.01103123        0.08986610        0.15256573        0.04289291        0.00272494        0.00210726        0.01039675        0.00268489        0.00496420
      95         -0.210668        2.000000        0.00760245        0.07155759        0.14018453        0.06069226        0.00369997        0.00226711        0.00876086        0.00237198        0.00408599
      96         -0.209866        2.000000        0.00471493        0.02940579        0.11772394        0.04430153        0.00238397        0.00302594        0.01567417        0.00182061        0.00147435
      97         -0.209338        2.000000        0.01372230        0.07126225        0.19138273        0.08203136        0.00623324        0.00109175        0.00888935        0.00236777        0.00477504
      98         -0.208565        2.000000        0.00941790        0.04327864        0.13873896        0.04737571        0.00203426        0.00169605        0.01248289        0.00216696        0.00463013
      99         -0.208037        2.000000        0.00750216        0.05077503        0.16173587        0.05453695        0.00226209        0.00320938        0.01882207        0.00146705        0.00312902
     100         -0.207022        2.000000        0.00558226        0.06929738        0.11406971        0.07175966        0.00228803        0.00292145        0.01469069        0.00218627        0.00296088
     101         -0.206754        2.000000        0.01304644        0.04963129        0.17644841        0.12706240        0.00610802        0.00276275        0.01435134        0.00283470        0.00661445
     102         -0.205257        2.000000        0.01087249        0.06699105        0.15043223        0.12937221        0.00496853        0.00396949        0.01428440        0.00341885        0.00522840
     103         -0.204786        2.000000        0.01256229        0.09233039        0.09391659        0.08051412        0.00396923        0.00141648        0.01056716        0.00340590        0.00594378
     104         -0.203622        2.000000        0.02163736        0.08914422        0.15853495        0.13890467        0.00763765        0.00341771        0.01355422        0.00211124        0.00632375
     105         -0.203278        2.000000        0.01271237        0.05326222        0.13912652        0.08106561        0.00505142        0.00214641        0.01597511        0.00187439        0.00305051
     106         -0.202443        2.000000        0.01097442        0.06210648        0.15725377        0.11263928        0.00330712        0.00311736        0.02546037        0.00467113        0.00387780
     107         -0.200977        2.000000        0.01135897        0.07762159        0.14963396        0.05495353        0.00321787        0.00216598        0.02181071        0.00233006        0.00499546
     108         -0.200551        2.000000        0.00936675        0.07032704        0.13181488        0.08459414        0.00413977        0.00253982        0.01486783        0.00285970        0.00466059
     109         -0.200098        2.000000        0.01994430        0.09418838        0.15776559        0.15691023        0.00968327        0.00286078        0.01714333        0.00226377        0.00612456
     110         -0.199292        2.000000        0.00815092        0.06030715        0.17652819        0.04743189        0.00537238        0.00182570        0.01985783        0.00282784        0.00398004
     111         -0.199071        2.000000        0.01284325        0.08896420        0.17695618        0.10779344        0.00533204        0.00496658        0.02115139        0.00302265        0.00311115
     112         -0.198266        2.000000        0.01516860        0.05625438        0.17648141        0.09170093        0.00792607        0.00397331        0.01665899        0.00259184        0.00389235
     113         -0.197273        2.000000        0.01109641        0.07763997        0.09660445        0.04498688        0.00358069        0.00138090        0.00869342        0.00212960        0.00620513
     114         -0.196705        2.000000        0.03646395        0.23098860        0.18390052        0.08424950        0.00854171        0.00447494        0.01536462        0.00245072        0.01610495
     115         -0.196185        2.000000        0.01100935        0.05967971        0.16039069        0.06884099        0.00654725        0.00286431        0.01594084        0.00238124        0.00450150
     116         -0.195372        2.000000        0.03112015        0.14297923        0.21890625        0.12802799        0.01169733        0.00413334        0.01578067        0.00498728        0.00813257
     117         -0.194557        2.000000        0.01663108        0.11750288        0.18478852        0.08096822        0.00989560        0.00297774        0.01958639        0.00440214        0.00645128
     118         -0.193743        2.000000        0.00643538        0.05605966        0.12560540        0.04946853        0.00325453        0.00154350        0.01859097        0.00340207        0.00340158
     119         -0.192762        2.000000        0.02405562        0.14339047        0.14781545        0.08710828        0.00506192        0.00300615        0.01185889        0.00265402        0.01371089
     120         -0.192290        2.000000        0.01463657        0.09315137        0.11881059        0.10859539        0.00982604        0.00265894        0.01370853        0.00291911        0.00318999
     121         -0.190912        2.000000        0.01063574        0.09260435        0.09246054        0.08403423        0.00489036        0.00280680        0.00970561        0.00253856        0.00603691
     122         -0.190089        2.000000        0.00881414        0.06620742        0.13142180        0.12708609        0.00484719        0.00489573        0.01527236        0.00332453        0.00714455
     123         -0.189926        2.000000        0.02681734        0.11770823        0.21642277        0.13397632        0.01435012        0.00240035        0.01923473        0.00547688        0.00613472
     124         -0.188838        2.000000        0.02446446        0.13050637        0.19623705        0.13133132        0.00851126        0.00343658        0.01360687        0.00330353        0.01362672
     125         -0.187349        2.000000        0.00968797        0.09000787        0.26125390        0.11001133        0.00362877        0.00459731        0.03113937        0.00780578        0.00746815
     126         -0.185488        2.000000        0.01202633        0.07392279        0.19295583        0.10963185        0.00717262        0.00508327        0.02894850        0.00293462        0.00731970
     127         -0.183789        2.000000        0.02624553        0.08318015        0.22991492        0.16356563        0.01340597        0.00496022        0.02397082        0.00469143        0.01110129
     128         -0.182665        2.000000        0.01540369        0.17393373        0.19307491        0.11781521        0.01295284        0.00539739        0.02901431        0.00681741        0.00701287
     129         -0.181089        2.000000        0.01430359        0.11090139        0.19866790        0.19454915        0.00897596        0.00639941        0.02579363        0.00688464        0.01227855
     130         -0.178329        2.000000        0.01047050        0.08170212        0.26398891        0.07184030        0.00723534        0.00518756        0.03919818        0.00464162        0.00710992
     131         -0.177198        2.000000        0.01545617        0.13806657        0.24756929        0.10513337        0.00598745        0.00550893        0.03895060        0.00632350        0.01442363
     132         -0.175776        2.000000        0.01183033        0.11617656        0.21528412        0.10626810        0.00726183        0.00558375        0.03614782        0.00792913        0.00940069
     133         -0.174034        2.000000        0.01916528        0.20081467        0.24487016        0.09522938        0.01750945        0.00485346        0.03285361        0.01058371        0.00759621
     134         -0.172663        2.000000        0.02066049        0.18679912        0.22872384        0.15972359        0.01363834        0.00830805        0.02435212        0.01007177        0.01537050
     135         -0.172134        2.000000        0.01774317        0.19037142        0.21832602        0.23827603        0.01563767        0.01134951        0.01787132        0.01062125        0.01471044
     136         -0.169400        2.000000        0.02180904        0.19643575        0.24518955        0.10090014        0.01071607        0.01560634        0.02916585        0.00791061        0.01438430
     137         -0.168204        2.000000        0.01436437        0.04855579        0.28017396        0.07886511        0.00520675        0.00511416        0.05733183        0.00442797        0.00809527
     138         -0.167535        2.000000        0.01723139        0.09284691        0.27264569        0.08805943        0.00956962        0.00504286        0.05187909        0.00607630        0.00865596
     139         -0.164925        2.000000        0.00074764        0.00707466        0.01295067        0.00401817        0.00046103        0.00042190        0.00267319        0.00026781        0.00041369
     140         -0.163389        2.000000        0.00214743        0.00857890        0.03542018        0.01092545        0.00096509        0.00071478        0.00713615        0.00046710        0.00126406
     141         -0.161119        2.000000        0.00055040        0.00289779        0.00848867        0.00398531        0.00031931        0.00022327        0.00170713        0.00015034        0.00027421
     142         -0.150517        2.000000        0.00005618        0.00045766        0.00127934        0.00042193        0.00002573        0.00002727        0.00018281        0.00002731        0.00004222
     143         -0.146538        2.000000        0.00004210        0.00052105        0.00060931        0.00091066        0.00003530        0.00003096        0.00004464        0.00004864        0.00003162
     144         -0.144147        2.000000        0.00009585        0.00104932        0.00121063        0.00797645        0.00012076        0.00006131        0.00011995        0.00021816        0.00006738