# Projected DOS for atomic kind Si at iteration step i = 0, E(Fermi) =    -0.079919 a.u.
#     MO Eigenvalue [a.u.]      Occupation                 s                py                pz                px               d-2               d-1                d0               d+1               d+2
       1         -0.501386        2.000000        0.00769634        0.00025190        0.00166308        0.00015997        0.00001760        0.00003370        0.00011645        0.00002483        0.00001313
       2         -0.483422        2.000000        0.56459851        0.00220439        0.02313833        0.00194516        0.00064133        0.00035884        0.02617881        0.00020539        0.00053133
       3         -0.482738        2.000000        0.08930132        0.00209093        0.00479506        0.00282392        0.00036216        0.00015640        0.00461429        0.00020143        0.00017260
       4         -0.481054        2.000000        0.01047790        0.00179436        0.00142480        0.00090902        0.00005729        0.00013904        0.00050872        0.00006505        0.00012838
       5         -0.476601        2.000000        0.00691728        0.00132343        0.00085640        0.00166243        0.00011484        0.00009388        0.00020505        0.00010699        0.00012176
       6         -0.475294        2.000000        0.00782785        0.00239705        0.00090614        0.00212488        0.00018733        0.00011882        0.00013339        0.00012265        0.00019805
       7         -0.472742        2.000000        0.00901226        0.00354346        0.00080946        0.00179233        0.00017300        0.00018905        0.00010641        0.00009494        0.00028263
       8         -0.468151        2.000000        0.01458764        0.00242321        0.00072205        0.00537524        0.00047841        0.00013905        0.00016039        0.00019812        0.00022345
       9         -0.465376        2.000000        0.49363862        0.13453926        0.01443317        0.08677307        0.01094809        0.00682649        0.00789469        0.00396806        0.01676275
      10         -0.462411        2.000000        0.49521348        0.13609088        0.00927238        0.08876648        0.01103179        0.00638427        0.00899519        0.00449677        0.01596205
      11         -0.460749        2.000000        0.49573878        0.06899485        0.01239133        0.15509711        0.01849679        0.00307394        0.00713803        0.00817182        0.00806813
      12         -0.459339        2.000000        0.49521753        0.08233845        0.01188786        0.14564263        0.01750177        0.00463826        0.00718458        0.00642832        0.01072791
      13         -0.457172        2.000000        0.49727237        0.09189506        0.01008949        0.13756656        0.01621472        0.00434475        0.00701645        0.00727676        0.01211177
      14         -0.454477        2.000000        0.49841200        0.16193385        0.00837864        0.07252688        0.00905192        0.00823349        0.00704484        0.00323137        0.01964519
      15         -0.440717        2.000000        0.00164731        0.00124825        0.00049064        0.00053897        0.00013476        0.00022338        0.00013248        0.00013503        0.00012321
      16         -0.436556        2.000000        0.00233716        0.00082367        0.00050717        0.00172425        0.00018176        0.00015886        0.00015844        0.00021080        0.00021811
      17         -0.435490        2.000000        0.00140934        0.00048303        0.00036410        0.00129766        0.00011819        0.00012208        0.00012253        0.00022979        0.00012967
      18         -0.433009        2.000000        0.00344287        0.00185919        0.00036042        0.00150437        0.00027824        0.00017902        0.00014667        0.00017854        0.00025994
      19         -0.431018        2.000000        0.00487144        0.00274448        0.00036212        0.00190274        0.00044096        0.00022254        0.00014759        0.00022057        0.00035632
      20         -0.429975        2.000000        0.00312295        0.00125663        0.00065026        0.00167718        0.00031505        0.00029127        0.00018836        0.00029833        0.00028388
      21         -0.428853        2.000000        0.00421690        0.00197555        0.00042327        0.00235559        0.00032943        0.00027566        0.00017850        0.00024211        0.00036710
      22         -0.425191        2.000000        0.04683061        0.01840243        0.00052342        0.02098946        0.00405353        0.00106191        0.00026679        0.00169603        0.00392963
      23         -0.423642        2.000000        0.35411001        0.13138235        0.00205009        0.15393717        0.03056809        0.00953091        0.00075715        0.01168167        0.02975628
      24         -0.421261        2.000000        0.07248644        0.03624992        0.00039901        0.02350690        0.00591130        0.00286447        0.00028600        0.00189102        0.00603771
      25         -0.420925        2.000000        0.33941496        0.12971103        0.00132932        0.14919619        0.02619014        0.00993657        0.00075659        0.01196706        0.03113463
      26         -0.419437        2.000000        0.37229370        0.16427976        0.00162574        0.12971265        0.03208460        0.01253474        0.00071268        0.00905508        0.03546934
      27         -0.417413        2.000000        0.39866866        0.19981065        0.00193580        0.09726218        0.02475692        0.01510461        0.00102472        0.00795201        0.06017803
      28         -0.417403        2.000000        0.40401775        0.17714627        0.00132782        0.13453325        0.04211378        0.01553978        0.00069125        0.00925196        0.03281019
      29         -0.415863        2.000000        0.40370687        0.07957638        0.00073436        0.20806360        0.06663644        0.00700448        0.00130147        0.01708688        0.02962155
      30         -0.413805        2.000000        0.39996205        0.12083988        0.00120824        0.18724365        0.04374297        0.00874390        0.00122785        0.01519685        0.03284366
      31         -0.413310        2.000000        0.40765847        0.18120514        0.00125946        0.09725846        0.02721299        0.01652539        0.00134316        0.00662308        0.07166957
      32         -0.410924        2.000000        0.40705417        0.09402720        0.00188353        0.18068020        0.06643549        0.00690032        0.00110984        0.01721645        0.03806954
      33         -0.377516        2.000000        0.00589704        0.00269544        0.00226126        0.00640739        0.00021621        0.00025591        0.00055767        0.00053494        0.00006375
      34         -0.375439        2.000000        0.00570900        0.00296478        0.00245618        0.00655291        0.00013144        0.00039809        0.00063162        0.00054724        0.00008586
      35         -0.373158        2.000000        0.01166440        0.01511990        0.00532022        0.00140875        0.00022876        0.00143882        0.00121289        0.00035064        0.00056356
      36         -0.366366        2.000000        0.00673533        0.00431029        0.00328599        0.00339511        0.00057743        0.00089281        0.00070298        0.00087516        0.00036969
      37         -0.364056        2.000000        0.05619544        0.02397953        0.01449475        0.04770859        0.00320941        0.00331202        0.00347087        0.00558456        0.00101479
      38         -0.363414        2.000000        0.07996526        0.03467042        0.01454942        0.06920058        0.00274491        0.00457973        0.00376589        0.00749969        0.00139323
      39         -0.363277        2.000000        0.19716179        0.07177916        0.03017206        0.17850236        0.00798129        0.01035824        0.00855148        0.01831742        0.00333673
      40         -0.361755        2.000000        0.08618714        0.06123183        0.01579375        0.05246615        0.00250291        0.00704995        0.00461073        0.00554217        0.00256506
      41         -0.361132        2.000000        0.14944527        0.18983468        0.02366163        0.01080517        0.00134733        0.01891563        0.00807695        0.00216954        0.00634523
      42         -0.360635        2.000000        0.18003676        0.07815194        0.02830738        0.16133026        0.00524348        0.00944807        0.00847414        0.01774369        0.00321332
      43         -0.359713        2.000000        0.08874012        0.08137645        0.01541836        0.03006289        0.00278159        0.00979413        0.00454287        0.00355400        0.00471637
      44         -0.358738        2.000000        0.04986348        0.02331152        0.01026647        0.03451676        0.00226770        0.00339263        0.00267687        0.00517872        0.00165956
      45         -0.354643        2.000000        0.28355544        0.12203819        0.06063484        0.13891425        0.02954002        0.01781440        0.01712959        0.02168946        0.02058828
      46         -0.352409        2.000000        0.29288364        0.15263184        0.06907773        0.10133641        0.01850690        0.02543325        0.01635646        0.01740165        0.03356192
      47         -0.351358        2.000000        0.30256517        0.14336758        0.06806811        0.12524454        0.02258772        0.02125068        0.01967499        0.02105907        0.03234029
      48         -0.351172        2.000000        0.29008983        0.09739472        0.06748274        0.16791994        0.03601138        0.01655496        0.01893000        0.02526448        0.01477446
      49         -0.348830        2.000000        0.30360328        0.15125809        0.05641403        0.13152734        0.02577753        0.01834539        0.02253059        0.01818045        0.03298884
      50         -0.347208        2.000000        0.29984766        0.13438593        0.06094364        0.13923534        0.02992865        0.01746812        0.02304528        0.01843299        0.02868108
      51         -0.343829        2.000000        0.03921342        0.01160993        0.07111739        0.01414483        0.00294799        0.00243525        0.00653046        0.00344341        0.00239591
      52         -0.338277        2.000000        0.02704388        0.00698417        0.05343498        0.00502234        0.00111305        0.00413178        0.00476706        0.00215265        0.00165402
      53         -0.335966        2.000000        0.02902815        0.00468593        0.07343966        0.00478437        0.00136082        0.00279217        0.00504691        0.00340854        0.00125618
      54         -0.333403        2.000000        0.02972276        0.00423110        0.07072436        0.00664118        0.00204253        0.00229779        0.00562978        0.00385584        0.00131801
      55         -0.331661        2.000000        0.09118685        0.01488559        0.22316712        0.01032076        0.00372833        0.00602222        0.00963710        0.00887227        0.00351275
      56         -0.330441        2.000000        0.07934662        0.01859919        0.14311795        0.00909899        0.00235850        0.01089898        0.00985620        0.00444258        0.00552854
      57         -0.324889        2.000000        0.07807654        0.01287022        0.14710413        0.01235388        0.00338318        0.00692377        0.01019316        0.00804595        0.00412056
      58         -0.321896        2.000000        0.16779708        0.03066885        0.24761470        0.03816273        0.01119809        0.01028743        0.01697525        0.01549658        0.00642035
      59         -0.319786        2.000000        0.14600193        0.02615558        0.19516684        0.03069951        0.00830914        0.00950868        0.01351351        0.01362355        0.00664759
      60         -0.319403        2.000000        0.17408893        0.04434545        0.26842746        0.02287705        0.00531594        0.01703226        0.01914811        0.01055380        0.01225343
      61         -0.317985        2.000000        0.14975170        0.02558884        0.20558740        0.03649203        0.00913271        0.00980713        0.01556576        0.01301540        0.00690762
      62         -0.316986        2.000000        0.14003261        0.02502831        0.20173414        0.03055612        0.00843878        0.00932346        0.01404910        0.01074363        0.00673337
      63         -0.314684        2.000000        0.14171386        0.02988585        0.19739612        0.02936437        0.00657197        0.01261254        0.01617116        0.00889760        0.00810826
      64         -0.311791        2.000000        0.08626771        0.00807843        0.25388949        0.00530283        0.00062647        0.00259510        0.00717063        0.00085688        0.00169946
      65         -0.242845        2.000000        0.00510776        0.09964527        0.35227261        0.16579927        0.00180390        0.00383016        0.01549508        0.00460057        0.00406935
      66         -0.241208        2.000000        0.00415008        0.10075185        0.38038861        0.19561615        0.00379913        0.00342580        0.01731597        0.00456958        0.00258542
      67         -0.239629        2.000000        0.00545796        0.21838442        0.35382152        0.05135470        0.00444661        0.00462531        0.01793240        0.00197919        0.00244582
      68         -0.236136        2.000000        0.01192969        0.07290224        0.22757181        0.09729055        0.00695277        0.00755943        0.00844168        0.00302149        0.01402182
      69         -0.235790        2.000000        0.00861586        0.05892226        0.19817016        0.07179248        0.00909995        0.00379968        0.00811401        0.00318340        0.00557587
      70         -0.233200        2.000000        0.00413869        0.04707150        0.15105583        0.06134016        0.00521326        0.00190418        0.00747401        0.00244595        0.00338874
      71         -0.232100        2.000000        0.01458689        0.07610114        0.28048668        0.13609536        0.01392117        0.00450188        0.01091938        0.00428376        0.01264644
      72         -0.230553        2.000000        0.01326379        0.10626286        0.25964878        0.11929025        0.00762860        0.00808771        0.01036673        0.00274547        0.01700943
      73         -0.228451        2.000000        0.01250430        0.08131327        0.28662979        0.11785599        0.01293706        0.00421826        0.00961124        0.00474707        0.01017304
      74         -0.228019        2.000000        0.01028416        0.09495065        0.23435689        0.08635508        0.00847704        0.00433040        0.01188609        0.00301415        0.01252568
      75         -0.226178        2.000000        0.00932893        0.05480489        0.20664612        0.11743888        0.00905611        0.00402263        0.00940479        0.00212309        0.01068369
      76         -0.225839        2.000000        0.01107524        0.10257362        0.26604280        0.15684458        0.01522127        0.00903217        0.01996732        0.00290476        0.00753281
      77         -0.223946        2.000000        0.01485595        0.14263255        0.23561365        0.18301787        0.01738182        0.00766300        0.04056671        0.00405657        0.00662627
      78         -0.222418        2.000000        0.01206975        0.15307800        0.13532103        0.14531333        0.01051928        0.00631418        0.02035812        0.00359944        0.01435761
      79         -0.221550        2.000000        0.01148466        0.19688902        0.20962155        0.16893664        0.01122220        0.00496520        0.03943265        0.01060279        0.01073260
      80         -0.220368        2.000000        0.00340470        0.06639184        0.13218108        0.02168345        0.00300026        0.00364922        0.01500010        0.00360813        0.00467717
      81         -0.219781        2.000000        0.01045874        0.09220576        0.12831509        0.08913346        0.00817190        0.00492573        0.02420477        0.00334094        0.00602226
      82         -0.219082        2.000000        0.01969897        0.07576641        0.19424975        0.12273138        0.01508045        0.00303057        0.04265223        0.00344850        0.00818420
      83         -0.218259        2.000000        0.02390571        0.13976051        0.16614904        0.11793532        0.01598451        0.00431909        0.02410240        0.00570775        0.01205833
      84         -0.217825        2.000000        0.00494279        0.10314092        0.20687139        0.13290090        0.00395717        0.00962330        0.04018015        0.00778532        0.00927131
      85         -0.217607        2.000000        0.00970504        0.06439692        0.12150342        0.05778079        0.00772533        0.00428362        0.02198025        0.00405129        0.00445307
      86         -0.217020        2.000000        0.01441266        0.13567811        0.20418654        0.16163906        0.01283253        0.00923633        0.04629508        0.00761333        0.00883169
      87         -0.215893        2.000000        0.01528203        0.16921316        0.10428732        0.15034560        0.01426462        0.00340507        0.02045732        0.00697580        0.01348391
      88         -0.215337        2.000000        0.01406532        0.12405928        0.21265353        0.07176224        0.01162533        0.00561067        0.04988901        0.00713985        0.00960355
      89         -0.214422        2.000000        0.01270721        0.12452065        0.23172558        0.13437046        0.01275004        0.00721597        0.03905884        0.00873974        0.00954847
      90         -0.213801        2.000000        0.02177843        0.08770106        0.18916406        0.11169879        0.01747532        0.00350732        0.03200366        0.00295873        0.00928804
      91         -0.213497        2.000000        0.02983779        0.24008386        0.17395547        0.06302628        0.00533283        0.00543491        0.02541518        0.00370419        0.03372709
      92         -0.212446        2.000000        0.01794341        0.09050469        0.17497372        0.14421824        0.01388688        0.00739903        0.03358112        0.00599243        0.01033370
      93         -0.211629        2.000000        0.01469547        0.08936016        0.17637922        0.05797051        0.00810288        0.00511088        0.04774642        0.00438577        0.01217852
      94         -0.211497        2.000000        0.01009651        0.09458426        0.15044274        0.09875456        0.01239157        0.00746495        0.03403036        0.00452960        0.00663907
      95         -0.210619        2.000000        0.01480769        0.07380332        0.15022166        0.11900567        0.01733061        0.00426292        0.02569107        0.00458741        0.00859572
      96         -0.209846        2.000000        0.01629772        0.08167426        0.18009538        0.10988374        0.01284891        0.00475844        0.03554790        0.00950498        0.01291266
      97         -0.209122        2.000000        0.01779372        0.13199324        0.14773706        0.06394221        0.00987051        0.00263600        0.02521767        0.00464118        0.01661703
      98         -0.208490        2.000000        0.00945034        0.11099555        0.16235881        0.11895155        0.00974740        0.00883335        0.03609072        0.00493028        0.01463064
      99         -0.207761        2.000000        0.01789714        0.10512443        0.14315982        0.08608099        0.01170182        0.00447485        0.03164448        0.00506772        0.01024630
     100         -0.207002        2.000000        0.01699526        0.08356472        0.17036481        0.08174636        0.01311283        0.00547120        0.02920242        0.00222955        0.01357102
     101         -0.206786        2.000000        0.01801800        0.08542649        0.16222945        0.10424551        0.01301844        0.00550445        0.02382131        0.00389407        0.01647325
     102         -0.205120        2.000000        0.02029361        0.11182403        0.15748363        0.05472467        0.00573935        0.00422939        0.03270105        0.00326441        0.02238484
     103         -0.204662        2.000000        0.01009379        0.09888247        0.18154346        0.08556317        0.00992098        0.00549915        0.05527710        0.00572540        0.01307300
     104         -0.203759        2.000000        0.00733632        0.05389216        0.10749962        0.07833320        0.00845011        0.00443528        0.02595881        0.00306409        0.00827458
     105         -0.203444        2.000000        0.01311753        0.06241157        0.16404903        0.09038268        0.01073732        0.00600671        0.04333671        0.00301891        0.01234572
     106         -0.202401        2.000000        0.00945409        0.03472500        0.15941289        0.07082479        0.00916875        0.00395232        0.04930961        0.00425857        0.00654887
     107         -0.201202        2.000000        0.00800081        0.03893546        0.14273526        0.06974088        0.00844364        0.00666666        0.03641483        0.00429960        0.00528689
     108         -0.200793        2.000000        0.01062689        0.08678748        0.13461693        0.11530148        0.01306848        0.00657755        0.02650634        0.00451710        0.01405751
     109         -0.200380        2.000000        0.00574856        0.06181975        0.15801763        0.03726460        0.00542042        0.00792274        0.03504851        0.00484079        0.00839890
     110         -0.199271        2.000000        0.00797090        0.04817624        0.16406094        0.05925407        0.00557765        0.00510300        0.05564993        0.00258243        0.00931475
     111         -0.198853        2.000000        0.00685154        0.08297596        0.14879606        0.05175123        0.01056862        0.00716607        0.03890906        0.00477139        0.00751142
     112         -0.198353        2.000000        0.00991353        0.06835711        0.15766587        0.05599107        0.01084395        0.00787483        0.03502197        0.00345501        0.00965150
     113         -0.197478        2.000000        0.00672170        0.07832333        0.18006623        0.09318318        0.01205552        0.00818872        0.04173781        0.00429525        0.01244073
     114         -0.196620        2.000000        0.00495780        0.04211295        0.07715021        0.05172409        0.00676620        0.00346284        0.01524240        0.00308320        0.00584427
     115         -0.196267        2.000000        0.00586515        0.08960170        0.14417702        0.08753099        0.01405344        0.00701955        0.02178814        0.00698538        0.00966816
     116         -0.195423        2.000000        0.00726456        0.03885147        0.11795674        0.05052687        0.00542134        0.00554161        0.03533047        0.00353359        0.00757991
     117         -0.194969        2.000000        0.00366513        0.07131578        0.09615525        0.02902221        0.00721229        0.00318698        0.02165074        0.00542135        0.00543138
     118         -0.194158        2.000000        0.00892057        0.04570858        0.18763473        0.07693688        0.00871632        0.00773529        0.05733688        0.00538853        0.00752453
     119         -0.192942        2.000000        0.00750974        0.10478556        0.15204455        0.03071244        0.01429850        0.00480460        0.03558213        0.00870398        0.00666909
     120         -0.192382        2.000000        0.00546088        0.06787463        0.16454574        0.07038872        0.01063668        0.00865481        0.04456027        0.00656235        0.00764808
     121         -0.191361        2.000000        0.01404315        0.07614704        0.21090115        0.11597243        0.01390258        0.00965687        0.04813675        0.00751359        0.01557288
     122         -0.190404        2.000000        0.00560764        0.09557042        0.15485676        0.06169692        0.01338235        0.00724702        0.03325911        0.00740102        0.00902829
     123         -0.190055        2.000000        0.00263103        0.03177211        0.05748935        0.02689802        0.00457706        0.00245001        0.01317925        0.00243573        0.00374419
     124         -0.189214        2.000000        0.00512600        0.05502752        0.10335308        0.03052309        0.00690672        0.00467661        0.02525371        0.00313729        0.00645893
     125         -0.187463        2.000000        0.00306022        0.01652195        0.07675276        0.02157248        0.00301937        0.00340425        0.02237498        0.00278148        0.00285255
     126         -0.186020        2.000000        0.00466686        0.07942297        0.12782379        0.03237291        0.01232622        0.00556126        0.02914800        0.00658721        0.00326005
     127         -0.183922        2.000000        0.00363734        0.01608733        0.07644278        0.03781348        0.00524176        0.00383325        0.01712775        0.00265799        0.00352939
     128         -0.182621        2.000000        0.00259992        0.02725511        0.06767420        0.01778778        0.00378773        0.00221830        0.01828413        0.00295933        0.00318429
     129         -0.181262        2.000000        0.00240994        0.01892189        0.07286816        0.03536914        0.00484524        0.00357876        0.01786290        0.00288897        0.00352345
     130         -0.178533        2.000000        0.00310908        0.01315000        0.07866066        0.03092366        0.00507247        0.00300172        0.02247792        0.00237617        0.00195776
     131         -0.177432        2.000000        0.00275043        0.02486794        0.05756233        0.01422887        0.00218337        0.00281827        0.01474011        0.00207931        0.00372623
     132         -0.176034        2.000000        0.00334089        0.01453742        0.07970151        0.01239377        0.00229422        0.00336854        0.02522246        0.00160475        0.00374840
     133         -0.174805        2.000000        0.00104467        0.00916551        0.04152166        0.00943811        0.00179981        0.00128980        0.01266860        0.00173666        0.00111081
     134         -0.172794        2.000000        0.00148235        0.01229095        0.04410012        0.00920518        0.00226211        0.00179535        0.01145236        0.00206587        0.00101534
     135         -0.172281        2.000000        0.00060479        0.00762922        0.02352909        0.00666522        0.00107339        0.00147231        0.00527015        0.00097779        0.00067835
     136         -0.169558        2.000000        0.00170595        0.02324945        0.03207390        0.01333682        0.00051258        0.00145275        0.01067710        0.00088009        0.00198548
     137         -0.167880        2.000000        0.00092958        0.03695259        0.02850559        0.08948288        0.00235744        0.00190817        0.00903135        0.00326693        0.00143814
     138         -0.167527        2.000000        0.00068636        0.01137083        0.03290228        0.00838651        0.00145709        0.00167170        0.00683910        0.00129696        0.00127081
     139         -0.164559        2.000000        0.00190674        0.46187237        0.02624888        0.36755607        0.01026440        0.01576725        0.00376546        0.01529591        0.00904495
     140         -0.162827        2.000000        0.00179529        0.15935228        0.03237013        0.60704253        0.01025676        0.00784603        0.00765680        0.02366672        0.00702174
     141         -0.160795        2.000000        0.00226634        0.62710888        0.02350155        0.21052540        0.00566650        0.02194946        0.00357353        0.01156833        0.01151539
     142         -0.149730        2.000000        0.00164072        0.07716763        0.01122547        0.74664824        0.07731389        0.00337330        0.00162759        0.02649270        0.00972686
     143         -0.146123        2.000000        0.00142702        0.52024486        0.01502212        0.29808554        0.03054528        0.01581410        0.00197938        0.01089794        0.05757925
     144         -0.143750        2.000000        0.00100297        0.42826615        0.01764453        0.37045507        0.03674318        0.01537653        0.00301660        0.01452136        0.04775308