# Projected DOS for atomic kind Ge at iteration step i = 0, E(Fermi) =    -0.078491 a.u.
#     MO Eigenvalue [a.u.]      Occupation                 s                py                pz                px               d-2               d-1                d0               d+1               d+2
       1         -0.500512        2.000000        0.75324201        0.00630925        0.02058377        0.00520671        0.00073010        0.00052583        0.00771936        0.00066757        0.00101293
       2         -0.484888        2.000000        0.00899902        0.00016308        0.00308586        0.00031608        0.00004489        0.00001331        0.00056055        0.00005780        0.00003303
       3         -0.482601        2.000000        0.65495751        0.03681598        0.01297930        0.07569598        0.00693446        0.00210509        0.00310924        0.00427934        0.00367058
       4         -0.479729        2.000000        0.65636687        0.08362061        0.01451762        0.03266163        0.00318118        0.00411100        0.00276376        0.00191793        0.00827007
       5         -0.475871        2.000000        0.65076433        0.03454613        0.00881565        0.08288301        0.00800935        0.00180706        0.00357219        0.00498847        0.00375388
       6         -0.474554        2.000000        0.64397466        0.04800510        0.01035755        0.06519711        0.00665750        0.00247749        0.00282978        0.00354433        0.00493906
       7         -0.472628        2.000000        0.65034074        0.10566691        0.00887527        0.00983741        0.00176687        0.00567443        0.00359138        0.00089221        0.01087842
       8         -0.468314        2.000000        0.12074968        0.00846604        0.00254595        0.01444946        0.00130557        0.00053227        0.00060063        0.00068480        0.00092216
       9         -0.467550        2.000000        0.52730147        0.02918445        0.00675475        0.07090237        0.00681642        0.00156595        0.00263333        0.00405254        0.00285755
      10         -0.462860        2.000000        0.01519008        0.00132894        0.00187351        0.00114407        0.00017949        0.00013145        0.00033513        0.00009807        0.00021542
      11         -0.461973        2.000000        0.02154596        0.00109098        0.00148797        0.00276545        0.00033660        0.00009070        0.00029927        0.00020814        0.00012913
      12         -0.461636        2.000000        0.00609754        0.00039194        0.00137602        0.00042918        0.00009731        0.00005066        0.00022481        0.00009726        0.00007824
      13         -0.458067        2.000000        0.00603114        0.00033723        0.00146353        0.00051321        0.00007997        0.00007446        0.00019320        0.00005334        0.00008405
      14         -0.455378        2.000000        0.00327150        0.00045507        0.00087196        0.00019816        0.00003359        0.00004449        0.00014146        0.00003460        0.00007103
      15         -0.439993        2.000000        0.54763500        0.13835206        0.00249924        0.07911773        0.01282076        0.00863671        0.00084569        0.00586167        0.01657372
      16         -0.436153        2.000000        0.54331064        0.05888638        0.00261586        0.15772409        0.01902644        0.00528218        0.00067624        0.00964341        0.01227263
      17         -0.434408        2.000000        0.54663364        0.07265857        0.00177084        0.13556050        0.01792023        0.00563772        0.00033793        0.01120489        0.01509450
      18         -0.432197        2.000000        0.54705759        0.10100946        0.00226964        0.10594176        0.01844838        0.00758808        0.00083314        0.00753551        0.01387863
      19         -0.430812        2.000000        0.53223480        0.12655337        0.00123085        0.08540290        0.01435448        0.00769466        0.00054557        0.00546441        0.01612365
      20         -0.430194        2.000000        0.54880637        0.11919621        0.00156903        0.07962614        0.01283748        0.00890778        0.00035726        0.00519997        0.02406481
      21         -0.428443        2.000000        0.55308052        0.09544031        0.00276838        0.09759120        0.02089963        0.00633454        0.00084738        0.00707139        0.01873770
      22         -0.425707        2.000000        0.19760765        0.05327801        0.00085946        0.02441218        0.00386631        0.00284153        0.00022193        0.00183650        0.00940611
      23         -0.424948        2.000000        0.33662864        0.07987663        0.00112441        0.05140878        0.00832668        0.00484774        0.00025922        0.00301607        0.01418584
      24         -0.422828        2.000000        0.03371805        0.00629370        0.00051211        0.00667788        0.00104152        0.00045726        0.00007566        0.00049472        0.00105240
      25         -0.419816        2.000000        0.03411603        0.00369115        0.00061940        0.00861758        0.00139219        0.00035995        0.00007441        0.00056173        0.00094130
      26         -0.419218        2.000000        0.27124997        0.03116168        0.00134601        0.06331374        0.01221916        0.00210812        0.00029922        0.00445271        0.00662443
      27         -0.418861        2.000000        0.25279914        0.02855338        0.00140487        0.06163959        0.01148811        0.00190054        0.00033739        0.00434388        0.00590432
      28         -0.417207        2.000000        0.00742322        0.00116836        0.00040690        0.00166435        0.00027840        0.00012509        0.00004589        0.00019966        0.00019057
      29         -0.416649        2.000000        0.00212908        0.00041396        0.00026002        0.00057012        0.00007384        0.00004644        0.00002874        0.00004640        0.00008381
      30         -0.414920        2.000000        0.00285910        0.00050791        0.00028286        0.00055717        0.00010141        0.00006602        0.00003120        0.00006360        0.00011892
      31         -0.414522        2.000000        0.00652024        0.00083994        0.00032327        0.00189303        0.00024940        0.00006508        0.00003734        0.00014040        0.00015504
      32         -0.412163        2.000000        0.00153045        0.00045621        0.00047360        0.00058538        0.00005172        0.00004674        0.00004091        0.00005279        0.00003907
      33         -0.377431        2.000000        0.38030498        0.07705919        0.03393305        0.21889075        0.01119244        0.00430474        0.00769133        0.01902786        0.00352859
      34         -0.374369        2.000000        0.38148986        0.08609675        0.03991387        0.19767000        0.00962484        0.00647289        0.00830642        0.01722776        0.00530800
      35         -0.372222        2.000000        0.35300621        0.23248434        0.05261161        0.01841271        0.00196308        0.02044977        0.00567050        0.00376311        0.01196531
      36         -0.367937        2.000000        0.37904201        0.09921127        0.06723543        0.10457876        0.01577933        0.01260978        0.00738501        0.01091536        0.00905891
      37         -0.364888        2.000000        0.03506660        0.01096085        0.00484879        0.01013561        0.00109322        0.00116898        0.00079905        0.00109512        0.00140272
      38         -0.364459        2.000000        0.39283663        0.11454098        0.05290542        0.11091058        0.01380677        0.01282994        0.00812429        0.01118976        0.01421917
      39         -0.362729        2.000000        0.27002162        0.08016513        0.04115236        0.06617499        0.00845515        0.00876626        0.00654437        0.00893864        0.01188714
      40         -0.361877        2.000000        0.14471271        0.03891052        0.02081171        0.03959222        0.00550997        0.00415687        0.00309366        0.00503136        0.00560717
      41         -0.361263        2.000000        0.18884452        0.05064597        0.02901457        0.05894686        0.00639747        0.00554906        0.00477627        0.00591510        0.00810292
      42         -0.360350        2.000000        0.22979252        0.08156919        0.02509552        0.06250376        0.00759189        0.00749110        0.00677865        0.00576692        0.00999016
      43         -0.359198        2.000000        0.39150239        0.10479922        0.04640926        0.12326101        0.01687697        0.00883579        0.01170517        0.01111922        0.01248445
      44         -0.357160        2.000000        0.36493156        0.10176405        0.04534963        0.11171990        0.01249426        0.01039238        0.01129755        0.01050745        0.01594841
      45         -0.355217        2.000000        0.04808750        0.01184137        0.00707277        0.01690543        0.00223196        0.00112780        0.00101344        0.00183189        0.00138924
      46         -0.352575        2.000000        0.01470876        0.00426857        0.00298912        0.00473568        0.00055473        0.00056801        0.00036356        0.00035976        0.00049163
      47         -0.351730        2.000000        0.00654536        0.00245200        0.00153715        0.00217754        0.00018177        0.00019635        0.00016941        0.00017120        0.00031791
      48         -0.351180        2.000000        0.02227835        0.00658599        0.00862247        0.00571538        0.00065413        0.00059009        0.00070075        0.00060082        0.00084576
      49         -0.349087        2.000000        0.00614601        0.00135861        0.00345159        0.00199387        0.00021136        0.00019852        0.00027960        0.00017516        0.00019730
      50         -0.347107        2.000000        0.01562831        0.00312380        0.01144180        0.00363837        0.00045162        0.00041249        0.00058505        0.00052677        0.00038519
      51         -0.342748        2.000000        0.19336691        0.01981199        0.20364899        0.02990336        0.00432025        0.00495209        0.00799312        0.00689958        0.00316076
      52         -0.337141        2.000000        0.21688214        0.03155813        0.22639630        0.02626030        0.00477563        0.00621595        0.01076665        0.00614319        0.00475948
      53         -0.334660        2.000000        0.18299762        0.02888922        0.21063182        0.01488872        0.00198075        0.00730304        0.00961183        0.00313701        0.00569166
      54         -0.332437        2.000000        0.24137212        0.02636263        0.20583331        0.04051926        0.00678734        0.00556818        0.01256893        0.00860579        0.00424134
      55         -0.331067        2.000000        0.18650782        0.01822415        0.16858650        0.03758422        0.00557837        0.00339328        0.01193950        0.00728220        0.00324712
      56         -0.328650        2.000000        0.17607875        0.03484059        0.16569867        0.01305517        0.00178173        0.00796619        0.01117482        0.00287777        0.00582038
      57         -0.326246        2.000000        0.16800618        0.01892153        0.17387598        0.02908129        0.00518054        0.00373764        0.01101420        0.00558694        0.00289427
      58         -0.322385        2.000000        0.07077524        0.01122311        0.07460242        0.00837916        0.00112752        0.00188830        0.00359655        0.00096768        0.00174421
      59         -0.320188        2.000000        0.10111469        0.01542765        0.06881304        0.01736061        0.00285329        0.00262565        0.00607191        0.00276025        0.00273417
      60         -0.318171        2.000000        0.09757831        0.01297191        0.07152660        0.01798470        0.00271758        0.00274430        0.00499552        0.00324142        0.00195315
      61         -0.316835        2.000000        0.07717334        0.01118212        0.05637981        0.01232164        0.00200776        0.00203082        0.00436066        0.00229931        0.00194598
      62         -0.314523        2.000000        0.04594188        0.00659212        0.03537981        0.00850989        0.00134240        0.00118971        0.00279138        0.00127475        0.00107996
      63         -0.314073        2.000000        0.05283420        0.01224446        0.03299635        0.00571757        0.00089588        0.00166935        0.00314289        0.00118127        0.00183161
      64         -0.311259        2.000000        0.07614209        0.00334368        0.12638060        0.00450655        0.00073401        0.00065171        0.00456034        0.00111801        0.00036053
      65         -0.244265        2.000000        0.00113981        0.00380248        0.00767063        0.00403169        0.00014112        0.00020386        0.00057269        0.00039244        0.00019498
      66         -0.241816        2.000000        0.00292611        0.01253462        0.02740382        0.01695185        0.00032158        0.00057647        0.00137252        0.00045853        0.00074497
      67         -0.238432        2.000000        0.00253666        0.01533178        0.03756946        0.01449221        0.00059596        0.00096952        0.00187412        0.00040720        0.00075952
      68         -0.236657        2.000000        0.00808537        0.03321208        0.11092525        0.06642080        0.00298898        0.00112957        0.00446056        0.00109501        0.00311801
      69         -0.235181        2.000000        0.00873148        0.13610835        0.19932950        0.06095080        0.00415496        0.00082219        0.00677693        0.00078959        0.00173098
      70         -0.233895        2.000000        0.00418722        0.03023744        0.08530639        0.05171384        0.00088644        0.00065926        0.00236215        0.00057323        0.00157545
      71         -0.232577        2.000000        0.00818183        0.06998508        0.19384003        0.11629145        0.00084391        0.00092434        0.00650659        0.00121316        0.00279662
      72         -0.230351        2.000000        0.00498541        0.03921916        0.10878244        0.05414127        0.00143442        0.00101323        0.00442520        0.00063465        0.00179969
      73         -0.229137        2.000000        0.00451362        0.06267070        0.17000586        0.05495723        0.00268798        0.00089267        0.00682662        0.00115763        0.00118561
      74         -0.228223        2.000000        0.00310325        0.05759714        0.14527479        0.04061917        0.00093605        0.00082312        0.00594312        0.00055247        0.00060528
      75         -0.227091        2.000000        0.00450724        0.02898460        0.08328245        0.04347485        0.00096098        0.00067574        0.00272709        0.00098603        0.00170886
      76         -0.226465        2.000000        0.00507117        0.02821269        0.07110657        0.03121963        0.00110931        0.00068476        0.00228659        0.00040331        0.00227452
      77         -0.224721        2.000000        0.00306762        0.04002887        0.10322164        0.03779875        0.00128635        0.00030724        0.00569615        0.00087192        0.00155114
      78         -0.221561        2.000000        0.00655207        0.07160348        0.19735920        0.06688995        0.00236681        0.00130007        0.00924815        0.00196205        0.00463458
      79         -0.221026        2.000000        0.00501513        0.03188616        0.06995981        0.02282548        0.00220723        0.00052252        0.00420670        0.00051195        0.00206307
      80         -0.220673        2.000000        0.00391071        0.01260672        0.03226071        0.01355126        0.00093197        0.00040907        0.00242931        0.00031528        0.00113445
      81         -0.220392        2.000000        0.00854801        0.04436757        0.13786677        0.05266428        0.00279922        0.00164700        0.01482848        0.00153853        0.00194255
      82         -0.219735        2.000000        0.00706939        0.06128599        0.12963355        0.02931686        0.00298791        0.00121841        0.00685463        0.00063331        0.00389747
      83         -0.218969        2.000000        0.00412191        0.03672068        0.08145668        0.04729678        0.00175549        0.00154954        0.00531201        0.00125609        0.00281222
      84         -0.218829        2.000000        0.00785848        0.08288564        0.18734442        0.04716224        0.00418445        0.00115490        0.00570148        0.00111094        0.00465724
      85         -0.217338        2.000000        0.01471715        0.05951876        0.13404412        0.06418050        0.00569979        0.00168142        0.01067012        0.00102507        0.00321151
      86         -0.217065        2.000000        0.01145088        0.12064181        0.24879054        0.07299396        0.00693935        0.00138975        0.01556545        0.00327085        0.00426383
      87         -0.216046        2.000000        0.00906188        0.09144146        0.16875595        0.04483398        0.00349249        0.00100514        0.01185856        0.00167670        0.00356820
      88         -0.215545        2.000000        0.00490944        0.01683719        0.06976817        0.02584485        0.00096027        0.00090297        0.00802464        0.00086840        0.00191499
      89         -0.215066        2.000000        0.00349223        0.03198314        0.09240154        0.03051336        0.00216419        0.00162492        0.00534188        0.00081835        0.00190639
      90         -0.213630        2.000000        0.00927371        0.04082915        0.14310864        0.07156204        0.00447674        0.00160219        0.01217453        0.00170517        0.00231345
      91         -0.213423        2.000000        0.00994687        0.07116190        0.23148171        0.05973812        0.00540456        0.00180301        0.00942788        0.00123546        0.00582381
      92         -0.212826        2.000000        0.01295205        0.03458324        0.07668701        0.04108159        0.00340773        0.00102013        0.00902559        0.00165228        0.00222902
      93         -0.211411        2.000000        0.00971188        0.05231725        0.15428552        0.06674491        0.00399648        0.00224363        0.00893815        0.00213082        0.00369772
      94         -0.210776        2.000000        0.00840936        0.09138956        0.19279189        0.05706219        0.00396439        0.00171756        0.01113376        0.00202585        0.00446576
      95         -0.210498        2.000000        0.00839403        0.03763022        0.15127953        0.07071078        0.00350309        0.00210612        0.01870307        0.00154944        0.00208360
      96         -0.210201        2.000000        0.00635551        0.03558837        0.08938932        0.02906671        0.00241491        0.00088304        0.00560754        0.00111013        0.00263634
      97         -0.209952        2.000000        0.00423898        0.04002364        0.12310445        0.04106907        0.00247043        0.00230320        0.01134081        0.00209377        0.00194887
      98         -0.209601        2.000000        0.00865879        0.04189575        0.11447207        0.03462471        0.00231462        0.00187903        0.01173165        0.00184835        0.00341719
      99         -0.208077        2.000000        0.00888256        0.04417257        0.18975803        0.06621292        0.00454747        0.00281879        0.01685122        0.00256973        0.00274233
     100         -0.207134        2.000000        0.00804469        0.06217831        0.23471097        0.10812088        0.00429512        0.00513503        0.02071003        0.00292930        0.00429749
     101         -0.206713        2.000000        0.01344222        0.07638909        0.13160758        0.12354085        0.00549570        0.00264088        0.01475898        0.00311571        0.00461889
     102         -0.205603        2.000000        0.01876339        0.13732581        0.14655794        0.16036366        0.00721835        0.00360574        0.01551593        0.00509681        0.00747105
     103         -0.204598        2.000000        0.01521586        0.07219174        0.10379237        0.07564920        0.00381490        0.00171312        0.00899429        0.00126782        0.00827718
     104         -0.203777        2.000000        0.00587424        0.05101099        0.14968042        0.08841927        0.00281749        0.00353124        0.01832404        0.00217284        0.00219716
     105         -0.203049        2.000000        0.02314434        0.06828076        0.16807456        0.09768515        0.00716728        0.00299748        0.01185903        0.00266732        0.00640050
     106         -0.202391        2.000000        0.01681057        0.07283282        0.13824503        0.12499801        0.00594786        0.00266420        0.02451585        0.00390196        0.00454473
     107         -0.200919        2.000000        0.00510088        0.08711880        0.09670718        0.06979677        0.00302419        0.00357342        0.01118808        0.00127551        0.00303621
     108         -0.200429        2.000000        0.00782087        0.04785408        0.13523495        0.08708727        0.00437661        0.00189826        0.01575356        0.00304042        0.00377891
     109         -0.199437        2.000000        0.00984439        0.07428751        0.14236563        0.08172492        0.00612270        0.00259247        0.01633838        0.00299730        0.00372733
     110         -0.198772        2.000000        0.01728712        0.08533117        0.18312582        0.07344076        0.00641818        0.00195792        0.02228625        0.00204201        0.00600675
     111         -0.198533        2.000000        0.00786257        0.08250519        0.15376972        0.08654399        0.00400144        0.00560541        0.01744443        0.00289666        0.00373727
     112         -0.197813        2.000000        0.02224393        0.09295651        0.20063925        0.11396793        0.00938152        0.00244304        0.02551611        0.00350557        0.00751290
     113         -0.197623        2.000000        0.01492593        0.13004216        0.17587972        0.07287013        0.00474585        0.00162980        0.01515336        0.00485929        0.00815480
     114         -0.196936        2.000000        0.03763807        0.20875271        0.20512339        0.10425528        0.00868658        0.00360073        0.02345994        0.00149189        0.01586481
     115         -0.196089        2.000000        0.01209216        0.04028754        0.11911578        0.05893472        0.00621607        0.00176835        0.01043017        0.00148035        0.00395076
     116         -0.194720        2.000000        0.02923834        0.12444316        0.23189713        0.11393322        0.01063347        0.00426873        0.02002344        0.00505952        0.00769433
     117         -0.193402        2.000000        0.00780757        0.06778524        0.11811461        0.06038067        0.00320466        0.00236530        0.01417734        0.00295496        0.00521836
     118         -0.193316        2.000000        0.02214626        0.13328590        0.19465979        0.09910233        0.01273549        0.00296846        0.02108871        0.00375025        0.00751474
     119         -0.192098        2.000000        0.01065856        0.13495595        0.10657070        0.07399376        0.00746417        0.00292075        0.01313497        0.00327771        0.00474690
     120         -0.191917        2.000000        0.02698178        0.11184866        0.15825640        0.11150410        0.00854891        0.00241916        0.01301118        0.00256448        0.01066379
     121         -0.190591        2.000000        0.02271838        0.15298613        0.15949330        0.16442496        0.01043394        0.00333601        0.01885427        0.00515859        0.00868439
     122         -0.189777        2.000000        0.00727720        0.07275467        0.13853908        0.11404868        0.00342825        0.00566582        0.01475655        0.00315130        0.00881530
     123         -0.189023        2.000000        0.01060915        0.07399821        0.20421662        0.04494906        0.00612724        0.00296459        0.01976388        0.00559603        0.00486431
     124         -0.187857        2.000000        0.01510155        0.09726549        0.18492516        0.10121907        0.00764193        0.00371552        0.01405710        0.00317165        0.00766073
     125         -0.187344        2.000000        0.02308883        0.11164204        0.24392085        0.16971884        0.00943911        0.00471114        0.02529623        0.00667872        0.00847509
     126         -0.184633        2.000000        0.01579109        0.14620899        0.21404414        0.17277931        0.01180276        0.00718960        0.03126471        0.00448883        0.00973431
     127         -0.183432        2.000000        0.02479169        0.07530735        0.24376294        0.15041457        0.01351797        0.00501898        0.02953228        0.00404400        0.01046690
     128         -0.182550        2.000000        0.00843064        0.11334007        0.18432022        0.07602110        0.00538003        0.00288711        0.03441656        0.00568620        0.00557853
     129         -0.180574        2.000000        0.01602875        0.11974503        0.20370498        0.19252044        0.00986270        0.00652128        0.02531506        0.00712405        0.01303685
     130         -0.177737        2.000000        0.00885531        0.07123638        0.26612904        0.07690009        0.00564098        0.00450536        0.04492166        0.00549498        0.00718807
     131         -0.177217        2.000000        0.01570751        0.13742512        0.25263870        0.10781489        0.00628837        0.00561832        0.04047764        0.00569816        0.01407811
     132         -0.175420        2.000000        0.01134231        0.11810094        0.20893127        0.07988294        0.00671311        0.00537748        0.03487181        0.00776579        0.00896527
     133         -0.172810        2.000000        0.02219152        0.15508324        0.25053431        0.14166263        0.01185097        0.00773010        0.02760036        0.01001183        0.01666091
     134         -0.172008        2.000000        0.01841097        0.22217160        0.21518023        0.22574047        0.01741949        0.01043758        0.01844501        0.01086792        0.01544574
     135         -0.170844        2.000000        0.01607390        0.22659682        0.24013410        0.11390031        0.01767233        0.00709947        0.02708954        0.01157523        0.00655284
     136         -0.169982        2.000000        0.01989783        0.11727278        0.27448920        0.07739393        0.00519839        0.00754959        0.03710798        0.00728834        0.01586817
     137         -0.168804        2.000000        0.01636777        0.05948571        0.24071160        0.07008938        0.00884982        0.00678546        0.05674785        0.00305447        0.00347823
     138         -0.167584        2.000000        0.01737361        0.13002547        0.23882231        0.12160630        0.01338295        0.00865021        0.03803546        0.00688857        0.00875308
     139         -0.166128        2.000000        0.00154747        0.01764775        0.02341260        0.01114164        0.00115670        0.00110583        0.00369784        0.00071177        0.00110371
     140         -0.165055        2.000000        0.00339910        0.01237229        0.04696677        0.01750935        0.00165758        0.00100733        0.00927998        0.00064606        0.00180916
     141         -0.162223        2.000000        0.00044062        0.00239612        0.00722373        0.00301440        0.00026124        0.00019071        0.00136373        0.00011312        0.00022271
     142         -0.152518        2.000000        0.00007367        0.00059963        0.00175552        0.00048339        0.00003391        0.00003766        0.00025718        0.00002586        0.00006138
     143         -0.147755        2.000000        0.00004818        0.00035526        0.00085313        0.00102169        0.00003845        0.00003405        0.00005621        0.00005310        0.00003115
     144         -0.145486        2.000000        0.00009375        0.00125694        0.00108717        0.00275624        0.00007912        0.00007247        0.00011609        0.00006969        0.00006963