# Projected DOS for atomic kind Si at iteration step i = 0, E(Fermi) =    -0.078200 a.u.
#     MO Eigenvalue [a.u.]      Occupation                 s                py                pz                px               d-2               d-1                d0               d+1               d+2
       1         -0.500273        2.000000        0.01061373        0.00031101        0.00160606        0.00016886        0.00002169        0.00003978        0.00012240        0.00002646        0.00001836
       2         -0.485399        2.000000        0.65373812        0.00462912        0.02639835        0.00292759        0.00094066        0.00055286        0.03194345        0.00029547        0.00116628
       3         -0.482420        2.000000        0.00631598        0.00143912        0.00118040        0.00258919        0.00020338        0.00009899        0.00013963        0.00016393        0.00008773
       4         -0.479578        2.000000        0.00482115        0.00253674        0.00103889        0.00067114        0.00004727        0.00016321        0.00013508        0.00005569        0.00021243
       5         -0.475786        2.000000        0.00706283        0.00109531        0.00084750        0.00284323        0.00020011        0.00007670        0.00015708        0.00014538        0.00010887
       6         -0.474541        2.000000        0.01558703        0.00439663        0.00092109        0.00395929        0.00037878        0.00022639        0.00013394        0.00016997        0.00046728
       7         -0.472479        2.000000        0.01350668        0.00617628        0.00083219        0.00100615        0.00012204        0.00022128        0.00019070        0.00006835        0.00046614
       8         -0.469007        2.000000        0.46817370        0.13541000        0.01296603        0.07187324        0.00900534        0.00720529        0.00804061        0.00317585        0.01773489
       9         -0.467486        2.000000        0.04103525        0.01135517        0.00138552        0.00851435        0.00094210        0.00048192        0.00068499        0.00044805        0.00124592
      10         -0.463323        2.000000        0.49035838        0.10580641        0.01114903        0.11919965        0.01453780        0.00436115        0.00875805        0.00648199        0.01285789
      11         -0.462555        2.000000        0.48479915        0.07280515        0.01152827        0.15122539        0.01849157        0.00413593        0.00773945        0.00637998        0.00939196
      12         -0.462308        2.000000        0.49687278        0.07950212        0.01082900        0.14707607        0.01743456        0.00383326        0.00923372        0.00682252        0.00949053
      13         -0.458438        2.000000        0.49513571        0.10248896        0.00957096        0.12900078        0.01539557        0.00448855        0.00722386        0.00591620        0.01409085
      14         -0.455758        2.000000        0.49906098        0.17150162        0.00903005        0.06600845        0.00831623        0.00836919        0.00768982        0.00326601        0.02034073
      15         -0.439895        2.000000        0.00170740        0.00135382        0.00053055        0.00065484        0.00015067        0.00024072        0.00013860        0.00014509        0.00012730
      16         -0.436227        2.000000        0.00292089        0.00068107        0.00051537        0.00239641        0.00020870        0.00016315        0.00017095        0.00026872        0.00028350
      17         -0.433828        2.000000        0.00357220        0.00115375        0.00037935        0.00273137        0.00029989        0.00016368        0.00014105        0.00026091        0.00029802
      18         -0.432200        2.000000        0.00464590        0.00213082        0.00033362        0.00224309        0.00037544        0.00020880        0.00013126        0.00021498        0.00038099
      19         -0.430658        2.000000        0.01317928        0.00679665        0.00050309        0.00480312        0.00112915        0.00049739        0.00023212        0.00039547        0.00110082
      20         -0.430183        2.000000        0.00452266        0.00225889        0.00044596        0.00218201        0.00034310        0.00037254        0.00015867        0.00019825        0.00046360
      21         -0.427989        2.000000        0.00438842        0.00244252        0.00054952        0.00169170        0.00045968        0.00030389        0.00016781        0.00032981        0.00038028
      22         -0.426182        2.000000        0.31285892        0.10930613        0.00164709        0.14649196        0.02901996        0.00681743        0.00063428        0.01054666        0.02592023
      23         -0.425294        2.000000        0.09674225        0.03259384        0.00078824        0.04637461        0.00877753        0.00278000        0.00028357        0.00316074        0.00788141
      24         -0.423375        2.000000        0.36709973        0.15982413        0.00199786        0.14274236        0.02948749        0.01293804        0.00040352        0.01011146        0.03298908
      25         -0.420390        2.000000        0.38806742        0.17839227        0.00129255        0.12873639        0.03336115        0.01433025        0.00079975        0.00997081        0.03773041
      26         -0.419462        2.000000        0.38151350        0.16512282        0.00163339        0.13780798        0.03027854        0.01198274        0.00053209        0.00976259        0.04306116
      27         -0.418557        2.000000        0.03976420        0.01537871        0.00050914        0.01675151        0.00378850        0.00097919        0.00023047        0.00117929        0.00393154
      28         -0.417388        2.000000        0.39156347        0.11193959        0.00135224        0.17581636        0.05554958        0.00798103        0.00105598        0.01356354        0.03963095
      29         -0.416970        2.000000        0.40769224        0.12381381        0.00082668        0.17209633        0.05247985        0.01086483        0.00101421        0.01204924        0.03911728
      30         -0.415570        2.000000        0.40488851        0.15741501        0.00127967        0.14369327        0.04439309        0.01096690        0.00111282        0.01204107        0.03959017
      31         -0.415270        2.000000        0.39548790        0.15986103        0.00117134        0.13831261        0.03140036        0.01088687        0.00096476        0.01107739        0.05337282
      32         -0.412215        2.000000        0.40893413        0.13187591        0.00153632        0.14104549        0.05569870        0.01110593        0.00133783        0.01139531        0.05122633
      33         -0.377242        2.000000        0.00582356        0.00239479        0.00210906        0.00696289        0.00025880        0.00020629        0.00049355        0.00056656        0.00008913
      34         -0.374131        2.000000        0.00832526        0.00378992        0.00301746        0.00950764        0.00021421        0.00044831        0.00089889        0.00076169        0.00012898
      35         -0.371905        2.000000        0.02460717        0.03224895        0.00944317        0.00229816        0.00036290        0.00282669        0.00209994        0.00068990        0.00086352
      36         -0.368307        2.000000        0.01616367        0.00615221        0.00682628        0.01337005        0.00105201        0.00123960        0.00136078        0.00196367        0.00053172
      37         -0.365112        2.000000        0.25682983        0.16723268        0.03968329        0.16801788        0.00725122        0.01912670        0.01329159        0.01550517        0.00943344
      38         -0.364393        2.000000        0.00742356        0.00280705        0.00329863        0.00518310        0.00058679        0.00077503        0.00082227        0.00098422        0.00045245
      39         -0.362926        2.000000        0.11220848        0.06901539        0.02036726        0.07159601        0.00412407        0.00858910        0.00541031        0.00871378        0.00371600
      40         -0.362018        2.000000        0.22915230        0.09521740        0.03669194        0.20829661        0.00827957        0.01156525        0.01044904        0.02201428        0.00472617
      41         -0.361482        2.000000        0.15263793        0.12731464        0.02066697        0.08492468        0.00541531        0.01201041        0.00807383        0.00886505        0.00427170
      42         -0.360438        2.000000        0.08376200        0.09102430        0.01097470        0.02478319        0.00158876        0.00943761        0.00379984        0.00248335        0.00345756
      43         -0.358394        2.000000        0.01321181        0.00592444        0.00612152        0.00676414        0.00087688        0.00147107        0.00114521        0.00114289        0.00120434
      44         -0.356813        2.000000        0.06264058        0.03271592        0.01432715        0.02656420        0.00552944        0.00457314        0.00421502        0.00497021        0.00510288
      45         -0.355471        2.000000        0.23071580        0.09170555        0.04445865        0.12889760        0.02633924        0.01159537        0.01431328        0.01949574        0.01459326
      46         -0.353009        2.000000        0.29499383        0.11059320        0.06766599        0.15638022        0.03446743        0.01712324        0.01866666        0.02583863        0.01968206
      47         -0.352233        2.000000        0.30424397        0.17090289        0.06165793        0.10884048        0.01750834        0.02487040        0.01855232        0.01558839        0.04010991
      48         -0.350917        2.000000        0.28190282        0.15592884        0.06839691        0.11245892        0.01742057        0.02345430        0.01541639        0.01577651        0.03390964
      49         -0.349583        2.000000        0.29994839        0.12308427        0.05933681        0.16074114        0.03541963        0.01470162        0.02121672        0.02160015        0.02344750
      50         -0.347915        2.000000        0.29398246        0.13525055        0.06125189        0.14182236        0.02916678        0.01871383        0.02045220        0.01771749        0.02756939
      51         -0.342314        2.000000        0.05515344        0.01733367        0.07159040        0.02391686        0.00527626        0.00361303        0.00711463        0.00521947        0.00352157
      52         -0.336591        2.000000        0.02917634        0.00432616        0.08035620        0.00391350        0.00130081        0.00366321        0.00563331        0.00301581        0.00153904
      53         -0.335075        2.000000        0.04706181        0.01268185        0.12921300        0.00300962        0.00044080        0.00661660        0.00705557        0.00079747        0.00344914
      54         -0.331766        2.000000        0.04347140        0.00922878        0.07518005        0.01072000        0.00307337        0.00340148        0.00691541        0.00481457        0.00227100
      55         -0.331050        2.000000        0.05624701        0.00912434        0.10732777        0.01019793        0.00357649        0.00390901        0.00716838        0.00734547        0.00259711
      56         -0.328485        2.000000        0.05276410        0.01378014        0.11748304        0.00552805        0.00132418        0.00645372        0.00712915        0.00272477        0.00364399
      57         -0.326750        2.000000        0.08467237        0.01176605        0.16694856        0.01734832        0.00457632        0.00627685        0.00967834        0.00883464        0.00314651
      58         -0.322259        2.000000        0.14843711        0.03225845        0.20322018        0.03240002        0.00894678        0.01232233        0.01510785        0.01240043        0.00741528
      59         -0.320215        2.000000        0.13481913        0.03052109        0.17239899        0.02798433        0.00752390        0.00980434        0.01518938        0.01029978        0.00840253
      60         -0.318245        2.000000        0.14205607        0.03613899        0.18853625        0.02821875        0.00702132        0.01047359        0.01484387        0.01041618        0.00884526
      61         -0.316817        2.000000        0.15570460        0.02155720        0.24449672        0.04061165        0.01087272        0.00918591        0.01554761        0.01631621        0.00571901
      62         -0.315703        2.000000        0.15986893        0.02558201        0.23339749        0.04344604        0.01020067        0.00981722        0.01911798        0.01392565        0.00699547
      63         -0.313996        2.000000        0.17560703        0.05016232        0.25063342        0.02144029        0.00573426        0.01949109        0.01884709        0.00964758        0.01437892
      64         -0.311296        2.000000        0.09977329        0.00602110        0.29479561        0.00956589        0.00207363        0.00187997        0.00811693        0.00352413        0.00116963
      65         -0.244766        2.000000        0.00609312        0.10360030        0.36928972        0.19724854        0.00507452        0.00515887        0.02155828        0.00639756        0.00509776
      66         -0.242081        2.000000        0.00395440        0.09172569        0.37547217        0.16907846        0.00165976        0.00307951        0.01772628        0.00467122        0.00229875
      67         -0.238694        2.000000        0.00619606        0.18019251        0.36896755        0.07878331        0.00442760        0.00422274        0.01920917        0.00338835        0.00316465
      68         -0.236932        2.000000        0.01121254        0.07474549        0.28578524        0.12131589        0.00898102        0.00755426        0.00947555        0.00523383        0.01379989
      69         -0.235086        2.000000        0.00750908        0.06207649        0.17650245        0.04612178        0.00742031        0.00393664        0.00827489        0.00311804        0.00534126
      70         -0.234100        2.000000        0.01127012        0.07351139        0.31499307        0.14146375        0.01219302        0.00506956        0.01509370        0.00481194        0.00824527
      71         -0.232594        2.000000        0.00958636        0.06510210        0.18625257        0.10316895        0.00668868        0.00595077        0.01391589        0.00222201        0.00897582
      72         -0.230608        2.000000        0.00947654        0.06992887        0.22276757        0.11680174        0.00618626        0.00656643        0.01066420        0.00160549        0.01377587
      73         -0.229127        2.000000        0.01095757        0.06507814        0.22680309        0.10993596        0.00923549        0.00531708        0.01137850        0.00441454        0.01025374
      74         -0.228639        2.000000        0.00995185        0.10410328        0.25077007        0.08972766        0.00821514        0.00654449        0.01009610        0.00150959        0.01288714
      75         -0.227474        2.000000        0.01388969        0.10019346        0.25916810        0.18309671        0.01637231        0.00951022        0.02119270        0.00280851        0.00962277
      76         -0.226677        2.000000        0.01648403        0.06479832        0.30366106        0.18483623        0.01624662        0.00557342        0.01263541        0.00361166        0.01537210
      77         -0.224780        2.000000        0.01022288        0.14378930        0.23117004        0.13325324        0.01725266        0.00650642        0.02693960        0.00531988        0.00461690
      78         -0.221814        2.000000        0.01050863        0.11490161        0.18161921        0.07396861        0.00714965        0.00498923        0.02622963        0.00453334        0.00990149
      79         -0.221549        2.000000        0.02699452        0.12706717        0.21799467        0.20385522        0.02078084        0.00934175        0.04183216        0.00343594        0.01264144
      80         -0.221113        2.000000        0.01901521        0.27976128        0.13836027        0.16011703        0.01561005        0.00659346        0.02110025        0.00807489        0.01992326
      81         -0.220591        2.000000        0.00908496        0.10595715        0.15240883        0.14844760        0.01058175        0.01072355        0.04046324        0.00182965        0.00388787
      82         -0.219658        2.000000        0.01390376        0.17200639        0.16466178        0.14793449        0.01458048        0.00587540        0.02558801        0.00849124        0.01128408
      83         -0.219023        2.000000        0.02005347        0.22976884        0.22400823        0.11842623        0.01317320        0.00670726        0.03828705        0.00998263        0.01867667
      84         -0.218649        2.000000        0.00959005        0.07019904        0.11333214        0.10341796        0.00901750        0.00294129        0.01584298        0.00587392        0.00566989
      85         -0.217655        2.000000        0.02502018        0.09628524        0.13479513        0.17861344        0.02099335        0.00333968        0.01859542        0.00357652        0.01185511
      86         -0.216748        2.000000        0.01976356        0.05948992        0.12742800        0.12278554        0.01507804        0.00286142        0.02163178        0.00217709        0.00927130
      87         -0.215949        2.000000        0.01349552        0.08713470        0.11661384        0.05733676        0.00769281        0.00371177        0.02791504        0.00240915        0.01038313
      88         -0.215570        2.000000        0.02089598        0.24250697        0.17616188        0.13992781        0.01526548        0.00613632        0.02710293        0.01035632        0.02035896
      89         -0.215187        2.000000        0.00690045        0.25481075        0.18296846        0.14288471        0.00730851        0.00453133        0.03401896        0.01740604        0.01328046
      90         -0.213865        2.000000        0.01624652        0.12282421        0.16261548        0.11419432        0.01129955        0.00586333        0.03471562        0.00506148        0.01384621
      91         -0.213149        2.000000        0.01469049        0.05805301        0.12082601        0.08258721        0.01036557        0.00308664        0.01725678        0.00236766        0.00891823
      92         -0.212891        2.000000        0.01892310        0.14481310        0.19076842        0.06739407        0.00795385        0.00751598        0.03566945        0.00474071        0.01774921
      93         -0.211936        2.000000        0.00956189        0.05896623        0.21454572        0.06939519        0.00960150        0.00667046        0.03351374        0.00565168        0.00845144
      94         -0.210764        2.000000        0.02248980        0.18718011        0.12671791        0.14786821        0.01679863        0.00528307        0.01911403        0.00315465        0.02718183
      95         -0.210440        2.000000        0.01506350        0.14084776        0.17925647        0.09068432        0.01127055        0.00570133        0.03526503        0.00734397        0.01597398
      96         -0.210255        2.000000        0.01873828        0.13526683        0.16383185        0.11015648        0.01416474        0.00836055        0.02578040        0.00460615        0.01723719
      97         -0.209960        2.000000        0.02566492        0.11009036        0.16387507        0.14366377        0.02307620        0.00294329        0.02823532        0.00490583        0.01586640
      98         -0.209842        2.000000        0.01134871        0.05982935        0.24072463        0.06516062        0.00959713        0.00640052        0.06360939        0.00908155        0.01034522
      99         -0.207842        2.000000        0.00459113        0.02633910        0.17043822        0.03749378        0.00386408        0.00478117        0.04914501        0.00309174        0.00469324
     100         -0.206976        2.000000        0.00737956        0.05315149        0.10044623        0.03959004        0.00468204        0.00266359        0.01927733        0.00336630        0.00807746
     101         -0.206765        2.000000        0.01214926        0.06036879        0.16636821        0.09243655        0.01219695        0.00443939        0.04015328        0.00459305        0.01062751
     102         -0.205668        2.000000        0.01003780        0.05838222        0.10245051        0.04150707        0.00582907        0.00315376        0.02487518        0.00168296        0.00929046
     103         -0.204507        2.000000        0.00695468        0.04038645        0.19295904        0.05946378        0.00648210        0.00664768        0.05498900        0.00687988        0.00748101
     104         -0.203966        2.000000        0.00665863        0.03875739        0.18211462        0.06892100        0.00719655        0.00553929        0.05062790        0.00455052        0.00667726
     105         -0.203001        2.000000        0.00828817        0.06058025        0.16875105        0.04664375        0.00716480        0.00381834        0.05325032        0.00445213        0.00902243
     106         -0.202404        2.000000        0.01095989        0.06405686        0.14051495        0.07806412        0.00761683        0.00676818        0.03927557        0.00542494        0.01220609
     107         -0.201256        2.000000        0.00732390        0.09064159        0.18462777        0.09847290        0.01264908        0.00927822        0.03699285        0.00487674        0.00969530
     108         -0.200466        2.000000        0.01431711        0.10600310        0.16910587        0.08074123        0.01251488        0.00625925        0.04119003        0.00498331        0.01618112
     109         -0.199186        2.000000        0.00586290        0.04360976        0.17081078        0.05796538        0.00738051        0.00710856        0.06389441        0.00476686        0.00489561
     110         -0.198834        2.000000        0.00583847        0.07671144        0.14848591        0.05881960        0.00717636        0.00920175        0.02502906        0.00609562        0.00937589
     111         -0.198533        2.000000        0.00698077        0.06065788        0.16996585        0.08669683        0.00755293        0.00611087        0.03619055        0.00494947        0.01401954
     112         -0.197988        2.000000        0.00644046        0.03723700        0.12806676        0.06283628        0.00838722        0.00566237        0.03238235        0.00411764        0.00683322
     113         -0.197730        2.000000        0.00351721        0.03735648        0.05795561        0.03101878        0.00469920        0.00196075        0.01432093        0.00282768        0.00445456
     114         -0.196518        2.000000        0.00559074        0.02660370        0.09906185        0.05048638        0.00686415        0.00428272        0.01737256        0.00219938        0.00660842
     115         -0.195905        2.000000        0.00972861        0.10659176        0.17699606        0.07437814        0.01807956        0.00680643        0.03897308        0.00715357        0.00754338
     116         -0.194503        2.000000        0.00460830        0.01950768        0.09804994        0.03945286        0.00522518        0.00330783        0.01631251        0.00426246        0.00542814
     117         -0.193716        2.000000        0.00678544        0.06627584        0.17959272        0.07737507        0.00904551        0.00882269        0.06335138        0.00577258        0.00800068
     118         -0.193075        2.000000        0.00527432        0.05575416        0.08524568        0.03102853        0.00729946        0.00302211        0.02026134        0.00413075        0.00559340
     119         -0.192134        2.000000        0.00700513        0.05531671        0.19293178        0.05383462        0.01122820        0.00910019        0.04617390        0.00756220        0.00565829
     120         -0.191791        2.000000        0.00697631        0.08313933        0.12622195        0.02840754        0.01273250        0.00249157        0.02646108        0.00732477        0.00563563
     121         -0.190717        2.000000        0.00472348        0.05363722        0.10701754        0.05955157        0.00956411        0.00635591        0.02584164        0.00516565        0.00512618
     122         -0.189868        2.000000        0.00385700        0.05869925        0.15199686        0.02227577        0.00889929        0.00361617        0.03367094        0.00567358        0.00462651
     123         -0.188623        2.000000        0.00608535        0.03979133        0.16401040        0.03975092        0.00741704        0.00680777        0.04792546        0.00659457        0.00594612
     124         -0.187969        2.000000        0.00366182        0.03811319        0.09594096        0.02717568        0.00534639        0.00338909        0.01920003        0.00449921        0.00553883
     125         -0.187293        2.000000        0.00383823        0.02056073        0.09375582        0.02058451        0.00298001        0.00271756        0.03158091        0.00153949        0.00444264
     126         -0.184681        2.000000        0.00100400        0.02657596        0.05266614        0.01041070        0.00275217        0.00238012        0.01183808        0.00225879        0.00169126
     127         -0.183501        2.000000        0.00237048        0.01130991        0.06865035        0.02567149        0.00390088        0.00210237        0.01960461        0.00261693        0.00190042
     128         -0.182366        2.000000        0.00416465        0.03869226        0.11455186        0.02887505        0.00661849        0.00429976        0.03248601        0.00414146        0.00376691
     129         -0.180468        2.000000        0.00184994        0.01733189        0.06770564        0.02081275        0.00357468        0.00273745        0.01705169        0.00277639        0.00247169
     130         -0.177591        2.000000        0.00294503        0.01347920        0.06883007        0.02323076        0.00472598        0.00193034        0.01893570        0.00283725        0.00190690
     131         -0.177177        2.000000        0.00108267        0.02224655        0.05164117        0.01884969        0.00199599        0.00268485        0.01409565        0.00193337        0.00209875
     132         -0.175658        2.000000        0.00365573        0.02443163        0.10016522        0.01466175        0.00230341        0.00411766        0.03208229        0.00230008        0.00448187
     133         -0.173049        2.000000        0.00071611        0.02028732        0.03314268        0.01384228        0.00131344        0.00191288        0.00783737        0.00187959        0.00128917
     134         -0.171990        2.000000        0.00022330        0.00822806        0.02007488        0.00766281        0.00114553        0.00129497        0.00313574        0.00105233        0.00065841
     135         -0.170692        2.000000        0.00118479        0.03622242        0.03632673        0.03269818        0.00272020        0.00194042        0.00742509        0.00281824        0.00172207
     136         -0.169716        2.000000        0.00136781        0.01325621        0.03602815        0.03677149        0.00134937        0.00144590        0.01433490        0.00210151        0.00108739
     137         -0.169002        2.000000        0.00247732        0.02160613        0.05492501        0.07556726        0.00263837        0.00155271        0.02194618        0.00339028        0.00160157
     138         -0.167699        2.000000        0.00086295        0.06597614        0.03060102        0.04149493        0.00178675        0.00297933        0.00743183        0.00252959        0.00205344
     139         -0.166569        2.000000        0.00173342        0.54010582        0.03029852        0.20255553        0.00693816        0.01887795        0.00397627        0.00878533        0.01160906
     140         -0.165508        2.000000        0.00207917        0.01522669        0.03577444        0.68628331        0.01389371        0.00228391        0.00923025        0.02552311        0.00389505
     141         -0.162614        2.000000        0.00232669        0.61898826        0.02489067        0.21851165        0.00622563        0.02032566        0.00574187        0.01274902        0.01188951
     142         -0.153053        2.000000        0.00192083        0.06842567        0.01420600        0.74583153        0.07713340        0.00331820        0.00338246        0.02591033        0.00880941
     143         -0.148131        2.000000        0.00107953        0.52558892        0.01284280        0.29429994        0.03195994        0.01521544        0.00199076        0.01034774        0.05770831
     144         -0.145986        2.000000        0.00111445        0.52947473        0.02475503        0.26510730        0.02719127        0.01838881        0.00449457        0.01130695        0.06086365