# Projected DOS for atomic kind H at iteration step i = 0, E(Fermi) =    -0.078831 a.u.
#     MO Eigenvalue [a.u.]      Occupation                 s                py                pz                px
       1         -0.500782        2.000000        0.10753205        0.00152316        0.08225024        0.00104471
       2         -0.484402        2.000000        0.14715016        0.00087555        0.11462429        0.00039743
       3         -0.482728        2.000000        0.10025742        0.00550720        0.07432025        0.00753790
       4         -0.480014        2.000000        0.09795938        0.00831251        0.07399477        0.00430102
       5         -0.475999        2.000000        0.09999902        0.00329043        0.07475606        0.00982969
       6         -0.474619        2.000000        0.10298436        0.00599332        0.07338715        0.00654719
       7         -0.472747        2.000000        0.09942703        0.01278687        0.07208909        0.00229902
       8         -0.467979        2.000000        0.10824514        0.00420531        0.06896787        0.01092235
       9         -0.467273        2.000000        0.10554357        0.00794567        0.08594349        0.00460310
      10         -0.462568        2.000000        0.10940221        0.00720098        0.08354195        0.00584940
      11         -0.461489        2.000000        0.10895166        0.00391017        0.08323583        0.00840689
      12         -0.460951        2.000000        0.10729463        0.00542555        0.08087770        0.00770521
      13         -0.457698        2.000000        0.11275543        0.00657592        0.07992630        0.00662618
      14         -0.455101        2.000000        0.11191754        0.00982908        0.07728404        0.00427014
      15         -0.440103        2.000000        0.10383810        0.01039649        0.06193319        0.00568028
      16         -0.436184        2.000000        0.10553361        0.00525886        0.06017061        0.01350247
      17         -0.434953        2.000000        0.10963401        0.00682735        0.05808690        0.01250291
      18         -0.432245        2.000000        0.10752840        0.01022508        0.05918079        0.00718999
      19         -0.430972        2.000000        0.11147987        0.00908912        0.06018159        0.00757421
      20         -0.430039        2.000000        0.11365375        0.00913708        0.05919975        0.00711749
      21         -0.428904        2.000000        0.11527694        0.00613728        0.06279255        0.00646251
      22         -0.425372        2.000000        0.10897200        0.01058992        0.05747243        0.00651519
      23         -0.424567        2.000000        0.10614923        0.00662043        0.06195026        0.00696128
      24         -0.422218        2.000000        0.10608267        0.00923378        0.05720990        0.00681869
      25         -0.419712        2.000000        0.11548941        0.00440281        0.05671742        0.01141037
      26         -0.419150        2.000000        0.11141061        0.00771524        0.06007064        0.00590578
      27         -0.418734        2.000000        0.10671887        0.00960161        0.05546805        0.00476573
      28         -0.417233        2.000000        0.11318829        0.00764804        0.05571867        0.00619959
      29         -0.416367        2.000000        0.10831631        0.00489309        0.05542628        0.00813358
      30         -0.414495        2.000000        0.11038340        0.00515132        0.05554646        0.00814407
      31         -0.413659        2.000000        0.10912539        0.00856930        0.05533710        0.00566487
      32         -0.412180        2.000000        0.11546261        0.00619990        0.05476023        0.00708845
      33         -0.377556        2.000000        0.16171350        0.00383896        0.04347864        0.01663794
      34         -0.374703        2.000000        0.16398265        0.00568625        0.04313643        0.01211028
      35         -0.372574        2.000000        0.17464591        0.01788224        0.03775461        0.00291322
      36         -0.367351        2.000000        0.19241198        0.00772767        0.04167533        0.00526448
      37         -0.364531        2.000000        0.18300628        0.00784210        0.03920044        0.00845719
      38         -0.364406        2.000000        0.15717337        0.00652756        0.03947604        0.00736970
      39         -0.362500        2.000000        0.17805411        0.00694055        0.03687091        0.00737031
      40         -0.361758        2.000000        0.16902236        0.00650815        0.03874619        0.00790673
      41         -0.361058        2.000000        0.16747348        0.00516623        0.04049574        0.00655174
      42         -0.360403        2.000000        0.16696769        0.00511667        0.04633444        0.00541321
      43         -0.359948        2.000000        0.17766479        0.00553182        0.04497236        0.00568273
      44         -0.357569        2.000000        0.18477280        0.00739543        0.04110728        0.00457622
      45         -0.354898        2.000000        0.17711171        0.00461389        0.04224901        0.00614141
      46         -0.352233        2.000000        0.17311143        0.00513868        0.04044209        0.00740131
      47         -0.351540        2.000000        0.18448760        0.00662646        0.03850611        0.00558869
      48         -0.351319        2.000000        0.17626762        0.00612129        0.03955444        0.00455852
      49         -0.348793        2.000000        0.18084717        0.00467896        0.03733943        0.00543815
      50         -0.346637        2.000000        0.17920821        0.00551254        0.03764685        0.00384092
      51         -0.343195        2.000000        0.28260963        0.00451376        0.02834380        0.00391201
      52         -0.337296        2.000000        0.30930532        0.00355828        0.02342644        0.00366518
      53         -0.334571        2.000000        0.30270639        0.00445522        0.02192662        0.00235844
      54         -0.333273        2.000000        0.29803942        0.00347786        0.02824630        0.00370202
      55         -0.331061        2.000000        0.30055548        0.00211511        0.02192479        0.00523055
      56         -0.328874        2.000000        0.30347679        0.00556883        0.01962365        0.00163475
      57         -0.325705        2.000000        0.30425529        0.00189692        0.02103376        0.00469674
      58         -0.322332        2.000000        0.28543413        0.00232356        0.04452125        0.00335842
      59         -0.320076        2.000000        0.28225696        0.00237114        0.04680736        0.00214162
      60         -0.318306        2.000000        0.27823446        0.00245624        0.04850417        0.00302196
      61         -0.317001        2.000000        0.28375769        0.00212694        0.04728793        0.00254809
      62         -0.314747        2.000000        0.28145619        0.00274580        0.04330787        0.00155040
      63         -0.313784        2.000000        0.28118305        0.00201434        0.04314728        0.00185163
      64         -0.311251        2.000000        0.30420483        0.00111988        0.05209376        0.00118756
      65         -0.243601        2.000000        0.23210242        0.00875987        0.00162132        0.02474896
      66         -0.241735        2.000000        0.22504990        0.01218984        0.00200927        0.03040013
      67         -0.238405        2.000000        0.22156236        0.03366005        0.00170662        0.00658643
      68         -0.236502        2.000000        0.20417524        0.01640367        0.00491391        0.02864096
      69         -0.235281        2.000000        0.21302221        0.02860169        0.00398214        0.02160682
      70         -0.233688        2.000000        0.20551613        0.01214822        0.00314947        0.02433797
      71         -0.232604        2.000000        0.21621104        0.01378249        0.00291201        0.02607031
      72         -0.230223        2.000000        0.19943585        0.02057916        0.00400277        0.01741196
      73         -0.229040        2.000000        0.20854665        0.01481723        0.00400470        0.02334399
      74         -0.227935        2.000000        0.20825704        0.02072558        0.00451420        0.01536288
      75         -0.226745        2.000000        0.20110516        0.01355085        0.00340188        0.02203313
      76         -0.226274        2.000000        0.18079433        0.01776890        0.00349442        0.02399611
      77         -0.224692        2.000000        0.21137692        0.01327375        0.00421861        0.01654869
      78         -0.221369        2.000000        0.23113851        0.01892307        0.00545773        0.01119706
      79         -0.221187        2.000000        0.14140010        0.01813633        0.00353737        0.02160601
      80         -0.220294        2.000000        0.21279176        0.01444301        0.00585990        0.01393060
      81         -0.219917        2.000000        0.19462891        0.01916840        0.00478986        0.01511701
      82         -0.219797        2.000000        0.20729621        0.02385962        0.00465097        0.01120650
      83         -0.219012        2.000000        0.21136632        0.01576255        0.00474682        0.01717190
      84         -0.218618        2.000000        0.20419182        0.01943741        0.00431532        0.01156473
      85         -0.217441        2.000000        0.21275013        0.01509458        0.00483146        0.01754003
      86         -0.217145        2.000000        0.19208807        0.01396361        0.00841889        0.02034555
      87         -0.216106        2.000000        0.22238081        0.01475913        0.00775609        0.01804287
      88         -0.215561        2.000000        0.14306405        0.02414800        0.00520113        0.01646877
      89         -0.215045        2.000000        0.19692790        0.02298888        0.00535586        0.01524597
      90         -0.213780        2.000000        0.19023175        0.01761724        0.00730599        0.01411944
      91         -0.213342        2.000000        0.22241083        0.01208949        0.00788076        0.01475547
      92         -0.212802        2.000000        0.18257684        0.01908980        0.01137519        0.01806580
      93         -0.211194        2.000000        0.23959839        0.01454293        0.00814033        0.01338856
      94         -0.210879        2.000000        0.21222456        0.01758219        0.00811454        0.01357043
      95         -0.210662        2.000000        0.21559753        0.01391690        0.00645156        0.01741786
      96         -0.209965        2.000000        0.21199563        0.01534446        0.00745425        0.01521059
      97         -0.209898        2.000000        0.17780501        0.01647488        0.00471593        0.02349565
      98         -0.209112        2.000000        0.21050777        0.02104895        0.00899612        0.00974170
      99         -0.208246        2.000000        0.24017401        0.01149110        0.00856213        0.01472448
     100         -0.207203        2.000000        0.23787027        0.01198450        0.00493155        0.01578027
     101         -0.206701        2.000000        0.21599603        0.01391993        0.00659263        0.01934470
     102         -0.205504        2.000000        0.18908385        0.01604382        0.00629652        0.01801443
     103         -0.204729        2.000000        0.25280645        0.01379704        0.00825883        0.01440655
     104         -0.203569        2.000000        0.26037014        0.00857797        0.00609779        0.01692873
     105         -0.203144        2.000000        0.22594998        0.01111036        0.00775381        0.01375532
     106         -0.202392        2.000000        0.23169016        0.01319608        0.01324084        0.01618873
     107         -0.200778        2.000000        0.22794650        0.01520091        0.00531548        0.01311000
     108         -0.200393        2.000000        0.19628858        0.01367470        0.00795009        0.01959761
     109         -0.199674        2.000000        0.26454616        0.01148368        0.01013259        0.01393571
     110         -0.198962        2.000000        0.27738625        0.01173455        0.00806479        0.01182721
     111         -0.198505        2.000000        0.23208834        0.01515667        0.00466163        0.01634345
     112         -0.198134        2.000000        0.22259137        0.01388787        0.00741358        0.01613084
     113         -0.197361        2.000000        0.24330782        0.01571427        0.00799687        0.01108261
     114         -0.197032        2.000000        0.16656153        0.02343937        0.00596296        0.00989638
     115         -0.196117        2.000000        0.22101754        0.01432880        0.00808454        0.01433896
     116         -0.195006        2.000000        0.21470894        0.01322095        0.00758695        0.01645338
     117         -0.193661        2.000000        0.21919186        0.01778433        0.00732215        0.01457634
     118         -0.193271        2.000000        0.27276838        0.01155815        0.00926521        0.01169667
     119         -0.192196        2.000000        0.19047574        0.02219646        0.00587144        0.01018877
     120         -0.192116        2.000000        0.23633719        0.01380512        0.00838315        0.01717664
     121         -0.190526        2.000000        0.18425681        0.01848587        0.00617622        0.01737577
     122         -0.189791        2.000000        0.25297041        0.01353381        0.00654511        0.01277730
     123         -0.189413        2.000000        0.27089737        0.01241998        0.00561582        0.01151588
     124         -0.188015        2.000000        0.21441586        0.01367131        0.00619512        0.01398290
     125         -0.187314        2.000000        0.26086136        0.01248539        0.00717739        0.01793084
     126         -0.184748        2.000000        0.23851155        0.01392344        0.00787184        0.01541496
     127         -0.183454        2.000000        0.25302208        0.01029952        0.00752452        0.01798542
     128         -0.182698        2.000000        0.27056052        0.01288718        0.00819827        0.00851423
     129         -0.180726        2.000000        0.22993471        0.01042434        0.00645684        0.01804185
     130         -0.178010        2.000000        0.31153022        0.01210002        0.00963761        0.01134282
     131         -0.177089        2.000000        0.28865866        0.01470192        0.00852306        0.00948668
     132         -0.175377        2.000000        0.29551588        0.01270154        0.00901390        0.00796936
     133         -0.172758        2.000000        0.25539402        0.01256589        0.01181720        0.01520164
     134         -0.172236        2.000000        0.14716194        0.02611735        0.00864240        0.01429135
     135         -0.171570        2.000000        0.20734090        0.01700703        0.00842684        0.01848327
     136         -0.169675        2.000000        0.24689694        0.02204212        0.01090341        0.00959786
     137         -0.168661        2.000000        0.30460651        0.00591760        0.01870530        0.01384597
     138         -0.167512        2.000000        0.25616550        0.01403189        0.01253129        0.01308336
     139         -0.165704        2.000000        0.02744298        0.02618982        0.00181900        0.01425186
     140         -0.164523        2.000000        0.06823763        0.00537435        0.00344775        0.03304789
     141         -0.161835        2.000000        0.01760823        0.03295071        0.00151253        0.00989249
     142         -0.151911        2.000000        0.00434752        0.00358980        0.00083644        0.03540335
     143         -0.147358        2.000000        0.00360163        0.02683491        0.00100647        0.01399457
     144         -0.145011        2.000000        0.00754933        0.02518831        0.00196117        0.01635159
     145         -0.144238        2.000000        0.00402034        0.03094771        0.00099127        0.01068061
     146         -0.143661        2.000000        0.00906532        0.03158041        0.00143445        0.00877214
     147         -0.141065        2.000000        0.01048996        0.00307894        0.00220927        0.05009384
     148         -0.139260        2.000000        0.00305220        0.01069282        0.00104390        0.03126874
     149         -0.137437        2.000000        0.01053270        0.03890742        0.00331525        0.01315266
     150         -0.134422        2.000000        0.01698753        0.03906157        0.00510988        0.01253342
     151         -0.121965        2.000000        0.00309134        0.00888914        0.00171649        0.04209760
     152         -0.118056        2.000000        0.00197390        0.00428048        0.00083222        0.03417492
     153         -0.117871        2.000000        0.00506163        0.02758945        0.00224224        0.02043831
     154         -0.116604        2.000000        0.00458289        0.01815238        0.00178446        0.03255817
     155         -0.114870        2.000000        0.00249653        0.03795070        0.00108982        0.00100825
     156         -0.114268        2.000000        0.00589020        0.03600478        0.00211102        0.01364008
     157         -0.111109        2.000000        0.00335122        0.02141611        0.00227642        0.02889803
     158         -0.109032        2.000000        0.00511253        0.03825648        0.00212908        0.01446584
     159         -0.082615        2.000000        0.00345816        0.00120217        0.00111503        0.04691583
     160         -0.078831        2.000000        0.00438425        0.04628829        0.00088516        0.00166218
     161         -0.043405        0.000000        0.02771795        0.00268341        0.01483256        0.00193937
     162         -0.040391        0.000000        0.00724590        0.00807380        0.01594940        0.00675189
     163         -0.038660        0.000000        0.00537823        0.00916570        0.01433974        0.01035514
     164         -0.036333        0.000000        0.00701194        0.00631978        0.01466615        0.01022363
     165         -0.035571        0.000000        0.01008006        0.00452596        0.01144137        0.00507160
     166         -0.027954        0.000000        0.01146446        0.01963657        0.01438006        0.01170658
     167         -0.025892        0.000000        0.01412159        0.01643230        0.01204796        0.01451342
     168         -0.023148        0.000000        0.01580897        0.00938471        0.01552264        0.02502297
     169         -0.022461        0.000000        0.01397309        0.01977100        0.01909895        0.01865516
     170         -0.021318        0.000000        0.01406574        0.01284773        0.01295992        0.02114977
     171         -0.019692        0.000000        0.01466415        0.01064245        0.01800300        0.02201494
     172         -0.019014        0.000000        0.01568404        0.01955365        0.01575389        0.02408834
     173         -0.016088        0.000000        0.01316631        0.02312177        0.01701201        0.01203885
     174         -0.014495        0.000000        0.01860289        0.02578091        0.01891038        0.01260837
     175         -0.004563        0.000000        0.01065683        0.01868828        0.02289583        0.02763446
     176          0.000255        0.000000        0.01276819        0.02917275        0.02191215        0.02605849
     177          0.000572        0.000000        0.01020667        0.03818085        0.02313317        0.01592027
     178          0.004284        0.000000        0.01124101        0.02000076        0.02348836        0.02961700
     179          0.005380        0.000000        0.01179824        0.02437142        0.02358940        0.03318648
     180          0.009018        0.000000        0.01939901        0.02840536        0.03258751        0.02052719
     181          0.019644        0.000000        0.07211725        0.05275515        0.05941888        0.13712120
     182          0.020737        0.000000        0.04645421        0.07045690        0.04431815        0.06665830
     183          0.025554        0.000000        0.03188554        0.07703848        0.03142064        0.02547657
     184          0.026546        0.000000        0.02559509        0.02275106        0.02032514        0.07061465
     185          0.028431        0.000000        0.06884122        0.10649157        0.05491644        0.07212448
     186          0.032315        0.000000        0.07767206        0.07978436        0.05790014        0.08340697
     187          0.038410        0.000000        0.07300590        0.06716162        0.06051361        0.09380754
     188          0.040929        0.000000        0.07394201        0.06273398        0.05461125        0.08434438
     189          0.042477        0.000000        0.07372294        0.08892803        0.05093385        0.07334104
     190          0.043991        0.000000        0.07160008        0.07282694        0.05960959        0.10192479
     191          0.046242        0.000000        0.06236629        0.06228354        0.04526531        0.08865909
     192          0.046621        0.000000        0.07178621        0.09302408        0.04922682        0.07367294
     193          0.051315        0.000000        0.06790139        0.13815689        0.05512143        0.03286784
     194          0.052405        0.000000        0.06686813        0.06803865        0.06418460        0.11040036
     195          0.053337        0.000000        0.06486394        0.06374910        0.06344194        0.09703555
     196          0.055285        0.000000        0.07227276        0.09699906        0.07154228        0.04262239
     197          0.056099        0.000000        0.05426958        0.12795039        0.06435387        0.05361235
     198          0.057649        0.000000        0.05943307        0.11185661        0.06864891        0.05769843
     199          0.060965        0.000000        0.06849734        0.06758277        0.04907690        0.06411602
     200          0.061981        0.000000        0.05572815        0.05456630        0.03654504        0.06188981
     201          0.064377        0.000000        0.07754546        0.06447079        0.04184483        0.03863692
     202          0.067126        0.000000        0.06803737        0.04239646        0.04064453        0.05393853
     203          0.067377        0.000000        0.08900222        0.05006701        0.04868014        0.08511946
     204          0.068167        0.000000        0.07502448        0.04909160        0.03961719        0.05716244
     205          0.068776        0.000000        0.06901753        0.03293073        0.05142224        0.07917229
     206          0.069567        0.000000        0.12409765        0.05442723        0.05968929        0.03064553
     207          0.070442        0.000000        0.13079999        0.05017156        0.05450294        0.03488179
     208          0.071587        0.000000        0.09396441        0.05533161        0.05095878        0.07650310
     209          0.072827        0.000000        0.09502480        0.04197884        0.05431110        0.05348222
     210          0.073163        0.000000        0.10024072        0.06045777        0.05958046        0.06922380
