# Projected DOS for atomic kind Ge at iteration step i = 0, E(Fermi) =    -0.080227 a.u.
#     MO Eigenvalue [a.u.]      Occupation                 s                py                pz                px               d-2               d-1                d0               d+1               d+2
       1         -0.501427        2.000000        0.75334038        0.00648862        0.02074306        0.00620468        0.00083354        0.00051881        0.00763397        0.00071729        0.00106625
       2         -0.483266        2.000000        0.18082675        0.01164403        0.00533222        0.01980746        0.00190716        0.00062236        0.00087289        0.00116119        0.00124605
       3         -0.482657        2.000000        0.50319942        0.02568161        0.01172764        0.05776834        0.00533861        0.00147345        0.00326819        0.00305845        0.00255844
       4         -0.481267        2.000000        0.63920733        0.07034509        0.01378715        0.04343079        0.00431293        0.00338078        0.00233895        0.00256080        0.00677704
       5         -0.476853        2.000000        0.65202611        0.06392470        0.01065083        0.05246203        0.00555266        0.00313816        0.00329022        0.00346244        0.00709137
       6         -0.475303        2.000000        0.64816676        0.05570779        0.00840387        0.06233167        0.00583929        0.00289971        0.00330994        0.00390537        0.00589108
       7         -0.472802        2.000000        0.65423357        0.08502867        0.00992560        0.03062019        0.00380254        0.00478976        0.00370567        0.00160855        0.00835022
       8         -0.468041        2.000000        0.63721107        0.03566586        0.00822474        0.08426333        0.00818086        0.00188746        0.00289416        0.00445141        0.00339621
       9         -0.464903        2.000000        0.01349827        0.00113288        0.00155777        0.00108642        0.00016357        0.00009316        0.00027995        0.00017684        0.00015636
      10         -0.462456        2.000000        0.01125967        0.00094434        0.00144839        0.00087672        0.00014172        0.00011471        0.00025570        0.00009888        0.00017505
      11         -0.460671        2.000000        0.00948871        0.00070474        0.00147349        0.00074027        0.00014273        0.00008370        0.00026803        0.00009504        0.00011464
      12         -0.458957        2.000000        0.00766781        0.00042720        0.00163793        0.00082634        0.00013602        0.00004970        0.00025405        0.00010760        0.00006282
      13         -0.457190        2.000000        0.00669737        0.00039271        0.00147662        0.00064336        0.00009259        0.00006483        0.00021205        0.00005776        0.00007944
      14         -0.454293        2.000000        0.00298876        0.00041405        0.00099437        0.00022390        0.00004379        0.00003569        0.00013926        0.00004512        0.00006289
      15         -0.440914        2.000000        0.54840828        0.13498536        0.00314181        0.08096408        0.01317031        0.00820533        0.00091778        0.00601332        0.01651493
      16         -0.436620        2.000000        0.54240361        0.08227138        0.00187505        0.13349103        0.01539451        0.00626982        0.00073589        0.00926826        0.01439304
      17         -0.435200        2.000000        0.55165453        0.06862802        0.00136600        0.14043451        0.01885971        0.00558265        0.00030011        0.01067413        0.01449854
      18         -0.433352        2.000000        0.54408151        0.10416060        0.00185917        0.11330332        0.01923932        0.00760115        0.00085500        0.00758904        0.01237686
      19         -0.430942        2.000000        0.54530258        0.12668831        0.00147327        0.08621568        0.01278084        0.00723642        0.00043115        0.00585772        0.01915897
      20         -0.429981        2.000000        0.55308211        0.11426787        0.00311424        0.07517638        0.01738875        0.00803524        0.00100430        0.00492624        0.02322105
      21         -0.428569        2.000000        0.54778667        0.09609449        0.00147123        0.11209158        0.01769260        0.00721188        0.00038424        0.00691825        0.01827107
      22         -0.425195        2.000000        0.50135763        0.11618271        0.00150141        0.07351814        0.01386992        0.00675301        0.00046160        0.00484525        0.02107598
      23         -0.423382        2.000000        0.04781499        0.00806449        0.00064619        0.00977476        0.00171709        0.00060166        0.00004611        0.00073783        0.00141617
      24         -0.421512        2.000000        0.50572280        0.06052412        0.00298472        0.11427140        0.02234442        0.00447814        0.00063977        0.00797530        0.01208499
      25         -0.420792        2.000000        0.01210445        0.00271183        0.00021561        0.00187948        0.00034226        0.00022210        0.00004512        0.00015918        0.00044605
      26         -0.419777        2.000000        0.05452907        0.01003484        0.00096157        0.01043702        0.00201677        0.00078700        0.00012559        0.00065936        0.00164386
      27         -0.417375        2.000000        0.00440806        0.00093078        0.00052541        0.00082144        0.00013470        0.00014777        0.00005490        0.00009685        0.00015412
      28         -0.417337        2.000000        0.00210320        0.00043482        0.00026567        0.00050584        0.00006480        0.00005370        0.00003284        0.00003095        0.00009475
      29         -0.415592        2.000000        0.00194703        0.00039326        0.00028567        0.00054520        0.00007178        0.00007355        0.00004573        0.00006586        0.00006708
      30         -0.413684        2.000000        0.00298502        0.00049193        0.00037562        0.00072658        0.00011855        0.00004204        0.00003535        0.00010950        0.00008898
      31         -0.413554        2.000000        0.00196809        0.00057741        0.00046514        0.00044692        0.00007561        0.00005015        0.00004394        0.00004614        0.00005523
      32         -0.410405        2.000000        0.00111308        0.00024991        0.00031626        0.00062363        0.00003232        0.00001444        0.00004709        0.00002589        0.00002054
      33         -0.377388        2.000000        0.37875306        0.09288258        0.03099679        0.21150640        0.00948104        0.00518604        0.00754340        0.01770929        0.00411258
      34         -0.375452        2.000000        0.38366239        0.10862142        0.03373370        0.18113773        0.01011302        0.00697012        0.00990653        0.01485617        0.00576469
      35         -0.373095        2.000000        0.37230147        0.20529494        0.05956082        0.04616274        0.00329895        0.01973041        0.00499693        0.00787322        0.01220341
      36         -0.366500        2.000000        0.40604255        0.09955861        0.05905570        0.11082713        0.01766703        0.01057652        0.00782708        0.01371340        0.01222088
      37         -0.363980        2.000000        0.38970625        0.10156947        0.04647904        0.11613961        0.01463794        0.01105201        0.01164883        0.00951692        0.01283380
      38         -0.363590        2.000000        0.30939772        0.07827938        0.05174141        0.09632116        0.01402561        0.00881824        0.00628802        0.01110741        0.00919529
      39         -0.363151        2.000000        0.04537511        0.00864317        0.00573323        0.01750841        0.00280259        0.00075429        0.00117716        0.00186205        0.00071540
      40         -0.361919        2.000000        0.23106449        0.06422311        0.03157690        0.06709556        0.00871683        0.00665071        0.00616298        0.00718098        0.00865290
      41         -0.360939        2.000000        0.20724667        0.06151804        0.02797265        0.06419268        0.00682035        0.00563987        0.00512381        0.00608892        0.00907732
      42         -0.360748        2.000000        0.20222662        0.06995711        0.02819506        0.04789003        0.00450247        0.00791897        0.00495504        0.00501955        0.00989323
      43         -0.359299        2.000000        0.30816199        0.11860940        0.04276749        0.06518506        0.00724135        0.01175884        0.00770029        0.00769240        0.01400123
      44         -0.359009        2.000000        0.31112216        0.08130494        0.03831293        0.10475360        0.01110631        0.01021310        0.00953770        0.00868439        0.01179131
      45         -0.354703        2.000000        0.03270300        0.01110812        0.00528635        0.00821625        0.00107768        0.00080726        0.00068579        0.00096410        0.00137040
      46         -0.352338        2.000000        0.01171123        0.00468271        0.00182387        0.00338377        0.00031303        0.00038909        0.00024209        0.00025217        0.00058396
      47         -0.351462        2.000000        0.01487571        0.00287985        0.00297043        0.00587404        0.00075810        0.00051646        0.00029620        0.00043308        0.00032184
      48         -0.351059        2.000000        0.00890688        0.00254258        0.00482930        0.00208190        0.00024013        0.00027227        0.00032519        0.00022913        0.00033432
      49         -0.349274        2.000000        0.00448448        0.00160396        0.00154579        0.00145161        0.00015025        0.00014694        0.00018150        0.00016284        0.00014262
      50         -0.347667        2.000000        0.00529097        0.00109106        0.00460822        0.00124800        0.00016590        0.00013652        0.00019375        0.00017686        0.00011085
      51         -0.343581        2.000000        0.20480034        0.01706393        0.24384696        0.02841658        0.00445336        0.00482078        0.00827944        0.00702657        0.00278904
      52         -0.339177        2.000000        0.23573171        0.03115762        0.23632186        0.02490664        0.00510954        0.00785409        0.01123938        0.00652731        0.00582338
      53         -0.335346        2.000000        0.22044475        0.02813856        0.21121075        0.02749714        0.00485893        0.00688971        0.01031784        0.00609448        0.00423682
      54         -0.333525        2.000000        0.22922945        0.02606125        0.19287329        0.04015376        0.00627764        0.00439913        0.01272483        0.00917217        0.00434700
      55         -0.332255        2.000000        0.09648805        0.00808596        0.12076714        0.01309804        0.00249355        0.00182986        0.00711813        0.00317999        0.00152824
      56         -0.330813        2.000000        0.17433017        0.03361639        0.14866856        0.01826581        0.00256913        0.00712538        0.01142954        0.00305456        0.00614976
      57         -0.325323        2.000000        0.13400440        0.01527766        0.14755387        0.02490289        0.00369984        0.00387101        0.00832558        0.00423848        0.00250878
      58         -0.322132        2.000000        0.04611308        0.00538067        0.03239037        0.00992393        0.00151516        0.00084054        0.00239026        0.00129332        0.00081994
      59         -0.319995        2.000000        0.08070241        0.01239725        0.05319159        0.01595479        0.00229192        0.00215700        0.00426937        0.00231485        0.00196747
      60         -0.319752        2.000000        0.07372793        0.01926609        0.05446606        0.00491055        0.00057714        0.00280793        0.00423433        0.00078337        0.00300711
      61         -0.318474        2.000000        0.08782588        0.00993304        0.06177360        0.01886525        0.00300366        0.00185560        0.00471844        0.00327942        0.00159412
      62         -0.317095        2.000000        0.11872347        0.02476593        0.08540822        0.01415420        0.00239033        0.00396657        0.00642860        0.00283744        0.00367043
      63         -0.315352        2.000000        0.11339970        0.01474072        0.08695317        0.02229402        0.00334809        0.00351618        0.00632278        0.00349492        0.00268417
      64         -0.311921        2.000000        0.09374280        0.00525499        0.15809966        0.00557899        0.00108775        0.00077098        0.00550226        0.00120511        0.00058999
      65         -0.243191        2.000000        0.00341827        0.01537779        0.03156312        0.01901255        0.00033647        0.00057042        0.00170215        0.00068707        0.00075530
      66         -0.240756        2.000000        0.00124327        0.00625343        0.01299104        0.00557397        0.00028676        0.00021326        0.00063834        0.00047404        0.00018302
      67         -0.240141        2.000000        0.00216387        0.02453258        0.03547155        0.00757357        0.00053805        0.00062992        0.00143290        0.00026850        0.00043594
      68         -0.236056        2.000000        0.00840762        0.08288731        0.13698821        0.06610180        0.00245703        0.00098697        0.00470785        0.00071949        0.00390221
      69         -0.235795        2.000000        0.00907888        0.09300352        0.17337402        0.06885402        0.00461919        0.00112692        0.00542049        0.00132165        0.00193836
      70         -0.233164        2.000000        0.00832761        0.07058053        0.21678564        0.13975428        0.00143762        0.00094818        0.00720665        0.00133163        0.00256315
      71         -0.231805        2.000000        0.00540081        0.03560624        0.10649868        0.05511843        0.00084631        0.00063589        0.00395390        0.00075522        0.00179038
      72         -0.230625        2.000000        0.00347376        0.07656686        0.11748436        0.02236257        0.00135672        0.00086041        0.00365009        0.00052287        0.00139627
      73         -0.228438        2.000000        0.00649593        0.03752078        0.09954523        0.03564044        0.00247679        0.00076997        0.00426136        0.00077694        0.00196912
      74         -0.228207        2.000000        0.00494111        0.05855885        0.15452538        0.04832949        0.00137451        0.00085550        0.00678970        0.00077518        0.00212596
      75         -0.226175        2.000000        0.00387753        0.05507801        0.18707001        0.09271021        0.00133768        0.00066073        0.00617110        0.00152439        0.00203942
      76         -0.225753        2.000000        0.00495990        0.02498015        0.09176005        0.04653248        0.00146226        0.00112159        0.00303474        0.00096895        0.00145593
      77         -0.223533        2.000000        0.00468577        0.02779204        0.06232421        0.02085441        0.00146384        0.00033778        0.00385321        0.00044637        0.00121660
      78         -0.222762        2.000000        0.00829960        0.07777123        0.15231898        0.02971138        0.00339917        0.00081326        0.00437802        0.00082703        0.00523887
      79         -0.221650        2.000000        0.00199747        0.02343348        0.04537997        0.01287940        0.00079957        0.00039950        0.00245014        0.00044764        0.00087892
      80         -0.219982        2.000000        0.01000194        0.11061845        0.18738095        0.03523839        0.00366675        0.00130129        0.01790309        0.00187848        0.00412192
      81         -0.219933        2.000000        0.00924210        0.10812907        0.25935263        0.08106064        0.00572474        0.00205038        0.01510169        0.00307361        0.00490325
      82         -0.219326        2.000000        0.00971762        0.05826904        0.15840442        0.03923457        0.00392944        0.00148735        0.01119559        0.00123964        0.00321373
      83         -0.218191        2.000000        0.01243398        0.08561132        0.14400867        0.04477431        0.00571759        0.00112757        0.01358062        0.00247566        0.00375238
      84         -0.217843        2.000000        0.00401856        0.03746492        0.06885742        0.02467137        0.00177227        0.00059833        0.00417929        0.00072467        0.00183199
      85         -0.217214        2.000000        0.01086910        0.07744564        0.16403931        0.12590166        0.00526927        0.00210693        0.00785651        0.00218550        0.00544932
      86         -0.216595        2.000000        0.00469577        0.04095003        0.08745951        0.02270186        0.00230013        0.00066882        0.00642873        0.00100778        0.00184460
      87         -0.215788        2.000000        0.00728185        0.06756174        0.15992615        0.03563366        0.00444576        0.00093125        0.00927845        0.00175028        0.00274533
      88         -0.215300        2.000000        0.00664945        0.04848338        0.09119950        0.02364778        0.00161634        0.00091809        0.01165422        0.00185319        0.00218999
      89         -0.214147        2.000000        0.00794039        0.04936542        0.09684134        0.03422800        0.00288244        0.00106793        0.00624692        0.00055953        0.00370234
      90         -0.213996        2.000000        0.01169226        0.05698878        0.16528734        0.04347483        0.00402745        0.00136064        0.01203611        0.00115296        0.00390482
      91         -0.213205        2.000000        0.00551212        0.02902009        0.09569288        0.04444292        0.00252737        0.00115218        0.00601500        0.00071853        0.00243617
      92         -0.212382        2.000000        0.01065297        0.04685600        0.11906275        0.06587771        0.00480465        0.00157074        0.01037539        0.00185454        0.00202890
      93         -0.211837        2.000000        0.00943203        0.05498365        0.14062002        0.03494270        0.00192436        0.00193251        0.01271703        0.00306196        0.00383064
      94         -0.211524        2.000000        0.00665127        0.03516376        0.19260768        0.07094898        0.00410292        0.00261874        0.02550877        0.00236871        0.00130981
      95         -0.210532        2.000000        0.01317156        0.10291600        0.15620798        0.06178586        0.00417115        0.00167352        0.00914471        0.00301924        0.00632162
      96         -0.209866        2.000000        0.00663856        0.04474135        0.17415428        0.06182012        0.00376234        0.00362483        0.02032180        0.00212330        0.00252589
      97         -0.208965        2.000000        0.01260638        0.06989184        0.13876541        0.05427708        0.00321113        0.00119395        0.00967508        0.00193170        0.00508102
      98         -0.208437        2.000000        0.00714344        0.03817149        0.15177909        0.05498485        0.00239568        0.00166939        0.01593621        0.00220559        0.00396887
      99         -0.207473        2.000000        0.00942510        0.05755114        0.14728831        0.08499341        0.00339963        0.00249453        0.01762351        0.00159564        0.00356610
     100         -0.207068        2.000000        0.01145038        0.05918112        0.15415857        0.11866839        0.00560495        0.00223452        0.01177697        0.00265319        0.00686594
     101         -0.206847        2.000000        0.00598487        0.06277825        0.13113227        0.04537040        0.00198257        0.00245431        0.01061613        0.00212802        0.00302953
     102         -0.204999        2.000000        0.01131176        0.06111584        0.13395294        0.10488276        0.00523092        0.00303428        0.01495185        0.00268724        0.00465150
     103         -0.204593        2.000000        0.00838296        0.05168526        0.08371684        0.05294880        0.00342023        0.00160667        0.01242631        0.00214627        0.00275989
     104         -0.203739        2.000000        0.02090372        0.07204297        0.17285119        0.13870440        0.00768791        0.00235145        0.01319656        0.00306636        0.00623930
     105         -0.203652        2.000000        0.00843085        0.09488824        0.15260849        0.13736539        0.00359183        0.00400547        0.01968874        0.00329019        0.00370035
     106         -0.202304        2.000000        0.00693206        0.05241737        0.13141023        0.08857291        0.00240468        0.00317111        0.02234578        0.00385819        0.00200755
     107         -0.201517        2.000000        0.01202260        0.06464797        0.16617136        0.14147472        0.00460780        0.00429432        0.02590731        0.00251395        0.00414113
     108         -0.201022        2.000000        0.01332068        0.07446572        0.15078117        0.07565181        0.00475183        0.00223481        0.01764248        0.00211468        0.00554387
     109         -0.200370        2.000000        0.02329850        0.09545523        0.13813432        0.09795845        0.00988945        0.00104999        0.00858709        0.00188071        0.00620283
     110         -0.199252        2.000000        0.00919741        0.05183985        0.14614591        0.03143052        0.00287082        0.00189846        0.01784162        0.00177741        0.00445358
     111         -0.198633        2.000000        0.02178816        0.04185634        0.17062615        0.13227341        0.00898223        0.00460911        0.01441376        0.00205161        0.00378213
     112         -0.198412        2.000000        0.00943119        0.08487873        0.16433425        0.07514471        0.00805474        0.00292436        0.01498498        0.00450087        0.00402456
     113         -0.197759        2.000000        0.01588007        0.09792603        0.17316863        0.05684236        0.00569178        0.00174771        0.01530565        0.00298647        0.00879479
     114         -0.196598        2.000000        0.03070625        0.21376994        0.19956913        0.10333537        0.00820389        0.00617723        0.01735774        0.00228841        0.01478685
     115         -0.196338        2.000000        0.00978593        0.09799972        0.14156906        0.09369444        0.00732996        0.00381430        0.01357428        0.00234297        0.00444391
     116         -0.195671        2.000000        0.02349152        0.15039408        0.14125214        0.07357674        0.00761477        0.00319672        0.01146567        0.00275405        0.00954992
     117         -0.194946        2.000000        0.01835457        0.09529913        0.24257695        0.10409670        0.00842279        0.00309823        0.02208925        0.00641973        0.00454310
     118         -0.194570        2.000000        0.00877258        0.06298958        0.13428238        0.06668904        0.00490722        0.00186307        0.01914325        0.00385538        0.00363285
     119         -0.192955        2.000000        0.02036755        0.10893442        0.12379197        0.06505207        0.00440403        0.00255329        0.01151001        0.00258739        0.01056546
     120         -0.192481        2.000000        0.01430062        0.07783219        0.10774916        0.09455594        0.00708439        0.00228668        0.01430318        0.00247150        0.00400129
     121         -0.191810        2.000000        0.00902068        0.05610125        0.08486266        0.05770879        0.00451750        0.00169100        0.00641179        0.00181447        0.00440347
     122         -0.190848        2.000000        0.01381011        0.10234169        0.12736886        0.11457524        0.00596699        0.00382357        0.01227776        0.00373736        0.00672883
     123         -0.190133        2.000000        0.03424395        0.13205024        0.24092050        0.17956414        0.01789499        0.00273294        0.02269372        0.00442728        0.00872044
     124         -0.189424        2.000000        0.01446220        0.11397337        0.19498671        0.12028177        0.00496949        0.00511515        0.01568064        0.00429542        0.01255628
     125         -0.187567        2.000000        0.00944523        0.10256716        0.24890199        0.12932427        0.00496379        0.00408384        0.03082293        0.00761656        0.00927477
     126         -0.186542        2.000000        0.01089880        0.06928855        0.17853983        0.07913789        0.00554044        0.00393957        0.02525524        0.00279509        0.00745761
     127         -0.184040        2.000000        0.02849995        0.09079253        0.23676745        0.16547771        0.01378701        0.00538879        0.02253259        0.00493951        0.01099920
     128         -0.182566        2.000000        0.02016913        0.18872830        0.20968969        0.12734373        0.01646368        0.00605642        0.02825006        0.00745337        0.00782860
     129         -0.181417        2.000000        0.01162581        0.10159232        0.20270844        0.18195577        0.00715993        0.00607442        0.03000602        0.00667402        0.01167845
     130         -0.178873        2.000000        0.01340416        0.09313065        0.25154024        0.08335020        0.00977448        0.00529582        0.03799458        0.00462524        0.00564407
     131         -0.177750        2.000000        0.01418581        0.13804356        0.23220799        0.11011189        0.00539369        0.00614898        0.03412910        0.00676324        0.01493800
     132         -0.176186        2.000000        0.01412971        0.13518402        0.23085349        0.11870054        0.00948093        0.00587057        0.03586189        0.00821992        0.01063537
     133         -0.175424        2.000000        0.01624084        0.21848583        0.23839334        0.09565609        0.01682973        0.00496038        0.03134864        0.01102360        0.00784122
     134         -0.172925        2.000000        0.01735840        0.13264703        0.23892116        0.15581802        0.00971251        0.00887018        0.03213499        0.00911020        0.01377759
     135         -0.172345        2.000000        0.01916537        0.17615081        0.22266182        0.23889811        0.01558769        0.01062322        0.02007821        0.01071638        0.01527449
     136         -0.169814        2.000000        0.02122335        0.20463512        0.23443076        0.11153548        0.01256974        0.01668655        0.03159022        0.00717162        0.01186611
     137         -0.167947        2.000000        0.01769165        0.06807864        0.25631920        0.09011404        0.00920554        0.00457430        0.05186549        0.00415636        0.00840300
     138         -0.167170        2.000000        0.01588968        0.08245846        0.33258375        0.06935073        0.00371057        0.00576367        0.05736615        0.00748099        0.01243257
     139         -0.164224        2.000000        0.00062532        0.00487970        0.00977072        0.00281688        0.00028989        0.00028725        0.00206730        0.00019011        0.00035859
     140         -0.162293        2.000000        0.00110634        0.00481361        0.02058094        0.00576005        0.00048547        0.00041139        0.00400034        0.00028089        0.00070563
     141         -0.160507        2.000000        0.00057419        0.00339645        0.00962832        0.00419116        0.00034401        0.00024054        0.00185762        0.00018720        0.00031468
     142         -0.148917        2.000000        0.00003922        0.00036582        0.00096117        0.00043597        0.00002588        0.00002085        0.00012324        0.00003072        0.00003076
     143         -0.145728        2.000000        0.00003947        0.00062181        0.00054542        0.00095174        0.00003682        0.00002955        0.00004385        0.00005186        0.00003447
     144         -0.143397        2.000000        0.00014077        0.00110758        0.00137552        0.02023796        0.00024317        0.00006438        0.00014442        0.00056594        0.00009075