# Projected DOS for atomic kind Si at iteration step i = 0, E(Fermi) =    -0.077658 a.u.
#     MO Eigenvalue [a.u.]      Occupation                 s                py                pz                px               d-2               d-1                d0               d+1               d+2
       1         -0.500076        2.000000        0.01288717        0.00023186        0.00162718        0.00012609        0.00001819        0.00003821        0.00014708        0.00002724        0.00001989
       2         -0.487486        2.000000        0.65160392        0.00410098        0.02514593        0.00238907        0.00072237        0.00046324        0.03189744        0.00030084        0.00135775
       3         -0.481538        2.000000        0.00563229        0.00282493        0.00092541        0.00085193        0.00006798        0.00017054        0.00012622        0.00007702        0.00022750
       4         -0.480282        2.000000        0.00794701        0.00144377        0.00131299        0.00343196        0.00027725        0.00010968        0.00016246        0.00020152        0.00010863
       5         -0.475878        2.000000        0.00944351        0.00193114        0.00085877        0.00346225        0.00024745        0.00010175        0.00015323        0.00014182        0.00022106
       6         -0.474182        2.000000        0.05082496        0.01765434        0.00118947        0.00737632        0.00083999        0.00077370        0.00040432        0.00030705        0.00207849
       7         -0.472429        2.000000        0.03233808        0.01053861        0.00112739        0.00657548        0.00064474        0.00035855        0.00028016        0.00031753        0.00093102
       8         -0.471241        2.000000        0.44519091        0.14299136        0.01179391        0.05571902        0.00680035        0.00709158        0.00782997        0.00262496        0.01985276
       9         -0.468175        2.000000        0.15993062        0.02833187        0.00318752        0.04735558        0.00542932        0.00109443        0.00223721        0.00242493        0.00317785
      10         -0.466855        2.000000        0.35171136        0.05244996        0.00847148        0.10918167        0.01321017        0.00219744        0.00674497        0.00574543        0.00674159
      11         -0.465133        2.000000        0.47403883        0.06614953        0.01028462        0.15079657        0.01922607        0.00360465        0.00760479        0.00648625        0.00832357
      12         -0.463214        2.000000        0.47927850        0.09242113        0.00900616        0.12904145        0.01591329        0.00453960        0.00935724        0.00571461        0.01115337
      13         -0.460269        2.000000        0.49016626        0.10661108        0.00927808        0.12484620        0.01476956        0.00480651        0.00711049        0.00595386        0.01441576
      14         -0.457942        2.000000        0.49509526        0.17416619        0.00822770        0.06265859        0.00828786        0.00840767        0.00743474        0.00293299        0.02171665
      15         -0.439069        2.000000        0.00240552        0.00183321        0.00061162        0.00087102        0.00021783        0.00029371        0.00016849        0.00017517        0.00017821
      16         -0.437313        2.000000        0.00355779        0.00084812        0.00046529        0.00285772        0.00025123        0.00018655        0.00015060        0.00028404        0.00035721
      17         -0.432915        2.000000        0.00502976        0.00170006        0.00035864        0.00298976        0.00045402        0.00013880        0.00014163        0.00028752        0.00041068
      18         -0.432173        2.000000        0.01236250        0.00527048        0.00057626        0.00614264        0.00099310        0.00047126        0.00017046        0.00050446        0.00102453
      19         -0.430587        2.000000        0.09283087        0.03868531        0.00061029        0.03889433        0.00776083        0.00258643        0.00039654        0.00248039        0.00813839
      20         -0.428780        2.000000        0.20467800        0.07333701        0.00165780        0.09339726        0.01818271        0.00416321        0.00037720        0.00726695        0.01736000
      21         -0.428459        2.000000        0.05619949        0.02076871        0.00068816        0.02515339        0.00464748        0.00158148        0.00020086        0.00197351        0.00499899
      22         -0.427474        2.000000        0.00637025        0.00302549        0.00050246        0.00287678        0.00063277        0.00034539        0.00017789        0.00042345        0.00055724
      23         -0.426749        2.000000        0.07005816        0.02138831        0.00073104        0.03587260        0.00605499        0.00181269        0.00029822        0.00233060        0.00619352
      24         -0.425004        2.000000        0.36951212        0.15293947        0.00147377        0.14705028        0.03615942        0.01160406        0.00060004        0.01012815        0.03216856
      25         -0.423198        2.000000        0.38315257        0.10109935        0.00173801        0.20742935        0.03853023        0.00667710        0.00075115        0.01593459        0.03438182
      26         -0.421558        2.000000        0.39706549        0.18486863        0.00141708        0.12408494        0.04249984        0.01451668        0.00048238        0.00917950        0.03387169
      27         -0.420598        2.000000        0.38889712        0.13623107        0.00115029        0.15710744        0.05582302        0.00958077        0.00097442        0.01324224        0.03139031
      28         -0.419276        2.000000        0.37051192        0.11649871        0.00124389        0.15426128        0.05170335        0.00888235        0.00137522        0.01124783        0.02824409
      29         -0.418677        2.000000        0.19594120        0.10127001        0.00119061        0.03565495        0.00840309        0.00850804        0.00074600        0.00318268        0.04042813
      30         -0.418103        2.000000        0.24561598        0.12219129        0.00101077        0.05560294        0.01027418        0.00967294        0.00074203        0.00351021        0.04766021
      31         -0.416485        2.000000        0.39842910        0.16820701        0.00117823        0.13853940        0.03228238        0.01273768        0.00108272        0.00843077        0.05179989
      32         -0.412590        2.000000        0.40157776        0.11386187        0.00224595        0.16862891        0.06154054        0.00829526        0.00147758        0.01342541        0.03678481
      33         -0.376454        2.000000        0.01007280        0.00531097        0.00363475        0.01006162        0.00032140        0.00064309        0.00091981        0.00068394        0.00029287
      34         -0.373826        2.000000        0.01242485        0.00637504        0.00354046        0.01325251        0.00028502        0.00058360        0.00111506        0.00108162        0.00019122
      35         -0.371955        2.000000        0.02283204        0.03240223        0.00739089        0.00129127        0.00021894        0.00284064        0.00178795        0.00030016        0.00079049
      36         -0.367137        2.000000        0.07455562        0.02751186        0.01458328        0.07244696        0.00317221        0.00358789        0.00413486        0.00759336        0.00138807
      37         -0.365564        2.000000        0.21827216        0.18909059        0.03270218        0.10414298        0.00491821        0.01870443        0.01015648        0.01164009        0.00715126
      38         -0.364636        2.000000        0.07478112        0.06790257        0.01441319        0.03262995        0.00154953        0.00688989        0.00377975        0.00437120        0.00267913
      39         -0.363751        2.000000        0.26650954        0.09436826        0.04030519        0.26100255        0.01052631        0.01125962        0.01211737        0.02753657        0.00476548
      40         -0.363126        2.000000        0.17207718        0.12663963        0.02673995        0.10810212        0.00413517        0.01349484        0.00812990        0.01095343        0.00592345
      41         -0.360626        2.000000        0.01992921        0.00893516        0.00599603        0.00944799        0.00151121        0.00202415        0.00167322        0.00143320        0.00242929
      42         -0.360487        2.000000        0.06710830        0.05930952        0.01366754        0.02086517        0.00297670        0.00760242        0.00407494        0.00278039        0.00422130
      43         -0.357347        2.000000        0.09056670        0.04097086        0.02525378        0.04293888        0.00731547        0.00594459        0.00499122        0.00646365        0.01002902
      44         -0.357053        2.000000        0.13973217        0.05837825        0.02936685        0.07375821        0.01276326        0.00941247        0.00843029        0.00940708        0.01394916
      45         -0.356731        2.000000        0.29075239        0.13697157        0.06050684        0.13196331        0.02678291        0.01894567        0.02034086        0.02018823        0.02634800
      46         -0.356365        2.000000        0.05825049        0.02986279        0.01526162        0.02409607        0.00420603        0.00563539        0.00355330        0.00361395        0.00717025
      47         -0.354367        2.000000        0.29725926        0.12119214        0.05609789        0.14699045        0.03610604        0.01789047        0.02037832        0.01917812        0.02303599
      48         -0.353250        2.000000        0.29276812        0.14041810        0.05906799        0.14616228        0.03328595        0.01776215        0.01984286        0.02027040        0.02451674
      49         -0.352170        2.000000        0.27284971        0.15250571        0.06241386        0.09676597        0.01777635        0.02269174        0.01575844        0.01384910        0.03464335
      50         -0.350286        2.000000        0.29596247        0.12641013        0.07103327        0.14597738        0.03247525        0.01493654        0.02106770        0.02185227        0.02599930
      51         -0.340727        2.000000        0.02914404        0.00657962        0.07216078        0.00777034        0.00162195        0.00256758        0.00691762        0.00307703        0.00220435
      52         -0.336146        2.000000        0.03634952        0.01114069        0.08220143        0.00313599        0.00085003        0.00669559        0.00631883        0.00096095        0.00316641
      53         -0.334057        2.000000        0.07880134        0.00831551        0.20988095        0.01087709        0.00370540        0.00352794        0.00975397        0.00640973        0.00215404
      54         -0.332265        2.000000        0.07909102        0.01330943        0.17901868        0.01398605        0.00407267        0.00735393        0.01012835        0.00791136        0.00351721
      55         -0.331022        2.000000        0.07984816        0.01659205        0.13441563        0.01275802        0.00427252        0.00790592        0.01111499        0.00700209        0.00524516
      56         -0.329283        2.000000        0.11367253        0.01883535        0.19433560        0.02824894        0.00777530        0.00731774        0.01431673        0.01417202        0.00403642
      57         -0.328531        2.000000        0.05481368        0.01489576        0.12204891        0.00429911        0.00114760        0.00713838        0.00732877        0.00246350        0.00402700
      58         -0.322560        2.000000        0.09918072        0.02316640        0.16392504        0.01785927        0.00505931        0.00816460        0.01175891        0.00604104        0.00596485
      59         -0.321431        2.000000        0.14720092        0.03133276        0.19026299        0.03448871        0.00993478        0.01189896        0.01548364        0.00978584        0.00789105
      60         -0.319531        2.000000        0.14047413        0.03538091        0.18750807        0.02768663        0.00642839        0.01182768        0.01482548        0.00980739        0.00934061
      61         -0.319303        2.000000        0.11534217        0.01482173        0.16934985        0.03116072        0.00903570        0.00505152        0.01224628        0.01194067        0.00375659
      62         -0.318938        2.000000        0.14931521        0.03714715        0.19467595        0.03279721        0.00829970        0.01065069        0.01767638        0.01267552        0.00919586
      63         -0.315781        2.000000        0.10891748        0.02789215        0.16215878        0.02001790        0.00503882        0.00966248        0.01086243        0.00711652        0.00681208
      64         -0.309531        2.000000        0.11616132        0.01762978        0.26862561        0.02135552        0.00444846        0.00512790        0.01302159        0.00649000        0.00471224
      65         -0.244271        2.000000        0.00292589        0.08279516        0.38973908        0.18106679        0.00116726        0.00369319        0.01995656        0.00495103        0.00149697
      66         -0.243640        2.000000        0.00453436        0.09026393        0.39417954        0.18950873        0.00291760        0.00470532        0.01925287        0.00683342        0.00345067
      67         -0.240883        2.000000        0.00667707        0.20382901        0.40413057        0.07570129        0.00762875        0.00429333        0.01654338        0.00454225        0.00360058
      68         -0.238481        2.000000        0.01249699        0.07935816        0.31433836        0.13274454        0.01051368        0.00728560        0.01711317        0.00612364        0.01394750
      69         -0.236386        2.000000        0.01058546        0.07991011        0.26492027        0.11174882        0.00955355        0.00602769        0.01070967        0.00362074        0.00879866
      70         -0.234826        2.000000        0.01270326        0.09464114        0.30637898        0.08554674        0.01239900        0.00573839        0.01227348        0.00451572        0.00855491
      71         -0.233298        2.000000        0.01648882        0.11690115        0.26380098        0.17961095        0.01165796        0.00953114        0.01467170        0.00263605        0.01679458
      72         -0.231574        2.000000        0.00651041        0.05168529        0.15177822        0.04506649        0.00359736        0.00514660        0.01094009        0.00222156        0.00740315
      73         -0.230618        2.000000        0.01076064        0.08082871        0.15980287        0.12077952        0.00851139        0.00745811        0.00856093        0.00394542        0.01123099
      74         -0.228783        2.000000        0.01724542        0.07854265        0.27453611        0.13629589        0.01739346        0.00532631        0.01405469        0.00559668        0.00983472
      75         -0.228286        2.000000        0.00943604        0.06953550        0.20507481        0.07990704        0.00881619        0.00501986        0.01947524        0.00309087        0.00685999
      76         -0.227733        2.000000        0.01599453        0.07967962        0.30542113        0.14491928        0.01375901        0.00607548        0.01690705        0.00465871        0.01613893
      77         -0.225810        2.000000        0.01171667        0.16385145        0.21290443        0.20471313        0.01334960        0.00900329        0.03470051        0.00606320        0.01218218
      78         -0.224496        2.000000        0.01422828        0.22792286        0.17257220        0.20088713        0.01380001        0.00677115        0.04231188        0.00904460        0.01435493
      79         -0.223260        2.000000        0.01894447        0.14591091        0.21154045        0.15466038        0.01925493        0.00395876        0.02510954        0.00691217        0.01007927
      80         -0.222336        2.000000        0.01577559        0.12438599        0.17393896        0.17666949        0.01492780        0.00944528        0.03808647        0.00253868        0.00879633
      81         -0.222189        2.000000        0.02217418        0.14065850        0.18475619        0.07703414        0.01067432        0.00415465        0.02432719        0.00340196        0.01600196
      82         -0.220508        2.000000        0.00618047        0.19755418        0.17389692        0.11764393        0.00813952        0.00366824        0.03619629        0.01357251        0.00791872
      83         -0.219907        2.000000        0.01434589        0.21253675        0.18848740        0.15662229        0.01410544        0.00271758        0.03881801        0.01292359        0.01328705
      84         -0.218620        2.000000        0.01471903        0.19659725        0.14261738        0.12167017        0.01238311        0.00619899        0.02540017        0.00655004        0.01423611
      85         -0.218392        2.000000        0.02817849        0.12380901        0.18324460        0.21286719        0.02601115        0.00476475        0.02523289        0.00477569        0.01198990
      86         -0.217550        2.000000        0.01813332        0.18617586        0.15918285        0.15660159        0.02015029        0.00516371        0.03373621        0.00894008        0.01223025
      87         -0.217450        2.000000        0.01974881        0.15745171        0.14517952        0.14194802        0.01309690        0.00794246        0.02088743        0.00443482        0.01943104
      88         -0.216596        2.000000        0.00976578        0.09569563        0.08922272        0.12192021        0.01062836        0.00511483        0.01894983        0.00332505        0.00992947
      89         -0.215551        2.000000        0.01547234        0.06468733        0.08097137        0.06811116        0.01194065        0.00280980        0.01253249        0.00173275        0.00885320
      90         -0.215145        2.000000        0.02402865        0.18995944        0.21981585        0.15714062        0.01148621        0.00684812        0.03571617        0.00738220        0.02564450
      91         -0.213987        2.000000        0.01951178        0.12937456        0.15763811        0.05367454        0.00989196        0.00452419        0.02579348        0.00159354        0.01942838
      92         -0.213207        2.000000        0.01603487        0.09291830        0.20553595        0.02918628        0.00538918        0.00268906        0.04988109        0.00456884        0.01486361
      93         -0.212507        2.000000        0.01612164        0.09017942        0.18298377        0.06903575        0.01353733        0.00314266        0.02977327        0.00655574        0.01226123
      94         -0.212147        2.000000        0.02750947        0.18747232        0.16800815        0.13643151        0.01730755        0.00559885        0.02184800        0.00405358        0.02543380
      95         -0.210783        2.000000        0.01752605        0.08623497        0.22086759        0.13500666        0.01813726        0.00884494        0.04227859        0.00738068        0.01320370
      96         -0.210201        2.000000        0.00878270        0.05441746        0.15818853        0.08683573        0.01137434        0.00614752        0.02705640        0.00518589        0.00846311
      97         -0.209676        2.000000        0.00984201        0.04370428        0.16154054        0.06134091        0.00882346        0.00529459        0.02799716        0.00695466        0.00757917
      98         -0.209204        2.000000        0.01646446        0.06027027        0.15879358        0.11349827        0.01611131        0.00434536        0.03260084        0.00313064        0.01122818
      99         -0.207032        2.000000        0.00884051        0.06115174        0.13091392        0.08162039        0.01060151        0.00329549        0.03845877        0.00403730        0.00867736
     100         -0.206826        2.000000        0.00429167        0.03023432        0.14050189        0.05050481        0.00515511        0.00557423        0.04066453        0.00388393        0.00473190
     101         -0.206444        2.000000        0.00899699        0.08373021        0.16772378        0.04791324        0.00557577        0.00640395        0.04193464        0.00303495        0.01159630
     102         -0.206061        2.000000        0.00921595        0.04766060        0.15465786        0.06217440        0.00604881        0.00429473        0.05803618        0.00440502        0.00709586
     103         -0.204577        2.000000        0.00657630        0.07813368        0.17828426        0.08740313        0.00673400        0.00650496        0.05045241        0.00362164        0.01206778
     104         -0.203501        2.000000        0.00376006        0.04203107        0.11575773        0.02262387        0.00335284        0.00259671        0.04010877        0.00369868        0.00313913
     105         -0.203088        2.000000        0.00972349        0.05664259        0.18390907        0.04487032        0.00566397        0.00639817        0.04999517        0.00580701        0.01086432
     106         -0.202590        2.000000        0.00727842        0.07839284        0.14833412        0.07512418        0.00743855        0.00767277        0.02669385        0.00550227        0.01266771
     107         -0.201942        2.000000        0.01060459        0.06310010        0.16688872        0.07924521        0.00859424        0.00899953        0.04050146        0.00725346        0.01008301
     108         -0.201072        2.000000        0.00937690        0.07987069        0.14030556        0.01435023        0.00418307        0.00368963        0.02826327        0.00481265        0.01206975
     109         -0.200249        2.000000        0.00767542        0.07691199        0.21269235        0.06638303        0.01211099        0.00848481        0.06447343        0.00903746        0.00694471
     110         -0.199937        2.000000        0.00801491        0.04031985        0.13903412        0.04647116        0.00880721        0.00414710        0.04763650        0.00479337        0.00569065
     111         -0.198437        2.000000        0.00984041        0.05695944        0.18292801        0.09022486        0.01052715        0.00938606        0.04741081        0.00476215        0.01052933
     112         -0.197970        2.000000        0.00513161        0.03041117        0.06294654        0.05883295        0.00454987        0.00373426        0.01025901        0.00230271        0.00676750
     113         -0.197174        2.000000        0.00532769        0.07785827        0.13011112        0.04412912        0.01215891        0.00543715        0.02428561        0.00753228        0.00547157
     114         -0.196508        2.000000        0.00725553        0.05255696        0.11658604        0.07036268        0.00841461        0.00582094        0.02534786        0.00546252        0.00812912
     115         -0.195619        2.000000        0.00800977        0.06838121        0.13327644        0.09612180        0.00870006        0.00592389        0.03407532        0.00606906        0.01379446
     116         -0.195052        2.000000        0.00631856        0.10758272        0.16930564        0.06394160        0.01536287        0.00693339        0.02871661        0.01060239        0.00901842
     117         -0.194501        2.000000        0.00653312        0.06257488        0.10050266        0.04142748        0.00970097        0.00279024        0.02081643        0.00405203        0.00613199
     118         -0.194139        2.000000        0.00361707        0.04730645        0.09425731        0.03224656        0.00623480        0.00293736        0.03054390        0.00525864        0.00346532
     119         -0.192829        2.000000        0.00486216        0.03010528        0.12869799        0.04394066        0.00633568        0.00556043        0.03568837        0.00292200        0.00395731
     120         -0.191914        2.000000        0.00238226        0.02522543        0.07463042        0.02055177        0.00426266        0.00250006        0.01915331        0.00272128        0.00335082
     121         -0.191393        2.000000        0.00259706        0.02936516        0.09597861        0.02690040        0.00540612        0.00303742        0.01527848        0.00300013        0.00415099
     122         -0.190370        2.000000        0.00673767        0.05131403        0.12446664        0.04936868        0.01053292        0.00543125        0.02816443        0.00556415        0.00462326
     123         -0.189628        2.000000        0.00296070        0.02598031        0.08035097        0.02856769        0.00265258        0.00387081        0.02655606        0.00213528        0.00416006
     124         -0.188561        2.000000        0.00585088        0.04494337        0.15080641        0.03866572        0.00747358        0.00593025        0.04086221        0.00567608        0.00670415
     125         -0.186553        2.000000        0.00288572        0.01918660        0.07614426        0.01484717        0.00368738        0.00245467        0.01840321        0.00224961        0.00283578
     126         -0.184126        2.000000        0.00152466        0.01515732        0.08206001        0.01329386        0.00258516        0.00310209        0.02359589        0.00377408        0.00147061
     127         -0.183568        2.000000        0.00349938        0.01722487        0.08681669        0.03107006        0.00456800        0.00342090        0.02671583        0.00397690        0.00283712
     128         -0.181839        2.000000        0.00312773        0.04485094        0.10555176        0.02133941        0.00681523        0.00251727        0.03029092        0.00542704        0.00240147
     129         -0.179613        2.000000        0.00213515        0.01252071        0.07312801        0.02467823        0.00375140        0.00206298        0.01859092        0.00275123        0.00196123
     130         -0.178834        2.000000        0.00422673        0.03448403        0.07830329        0.02665512        0.00406615        0.00367298        0.02170055        0.00360778        0.00408567
     131         -0.178071        2.000000        0.00212587        0.03622524        0.05591163        0.01567505        0.00276356        0.00313387        0.01409802        0.00261244        0.00316210
     132         -0.176274        2.000000        0.00070702        0.01640742        0.03598035        0.00643812        0.00117852        0.00164474        0.00763593        0.00136981        0.00197818
     133         -0.174735        2.000000        0.00118164        0.01878305        0.03588795        0.02557471        0.00186468        0.00221588        0.00958441        0.00159151        0.00131333
     134         -0.173702        2.000000        0.00045360        0.01099012        0.01771038        0.01606743        0.00139468        0.00126341        0.00315201        0.00134827        0.00073696
     135         -0.172459        2.000000        0.00081936        0.01347287        0.05409754        0.04290888        0.00306803        0.00192125        0.01527960        0.00296674        0.00124816
     136         -0.169267        2.000000        0.00335643        0.06215142        0.07081988        0.04908492        0.00370982        0.00320449        0.02705045        0.00332282        0.00259878
     137         -0.169030        2.000000        0.00155363        0.33747519        0.02782469        0.29407924        0.00613913        0.01243328        0.00569704        0.01147582        0.00821027
     138         -0.168235        2.000000        0.00219055        0.01656181        0.05373659        0.03156535        0.00319766        0.00237737        0.01807603        0.00191333        0.00164118
     139         -0.167589        2.000000        0.00126833        0.22184425        0.03946264        0.12397668        0.00393612        0.00722745        0.01569241        0.00618635        0.00611483
     140         -0.166165        2.000000        0.00165238        0.03999373        0.04096976        0.53911666        0.01265262        0.00389161        0.01116916        0.01922047        0.00345477
     141         -0.163879        2.000000        0.00219005        0.58956989        0.03457044        0.21193054        0.00726696        0.01969595        0.00815513        0.01244120        0.01183570
     142         -0.154237        2.000000        0.00227048        0.06231302        0.02546631        0.72453508        0.07520129        0.00388256        0.00630514        0.02501749        0.00855995
     143         -0.149316        2.000000        0.00100073        0.52178171        0.01536986        0.28928178        0.03150409        0.01729328        0.00268172        0.01106680        0.05716583
     144         -0.148111        2.000000        0.00123112        0.60716432        0.02242316        0.18813083        0.02185630        0.01722184        0.00596821        0.00827008        0.06743997