# Projected DOS for atomic kind Si at iteration step i = 0, E(Fermi) =    -0.077977 a.u.
#     MO Eigenvalue [a.u.]      Occupation                 s                py                pz                px               d-2               d-1                d0               d+1               d+2
       1         -0.500097        2.000000        0.01138012        0.00030716        0.00160673        0.00016119        0.00002155        0.00004024        0.00012779        0.00002684        0.00001914
       2         -0.485895        2.000000        0.65348896        0.00440706        0.02626993        0.00256964        0.00087937        0.00054262        0.03207906        0.00028751        0.00121429
       3         -0.482191        2.000000        0.00691205        0.00157215        0.00118153        0.00277383        0.00021973        0.00010579        0.00013664        0.00017421        0.00009779
       4         -0.479597        2.000000        0.00499884        0.00263519        0.00103149        0.00067921        0.00004765        0.00016477        0.00012916        0.00005694        0.00022847
       5         -0.475765        2.000000        0.00666024        0.00102285        0.00084270        0.00271714        0.00018990        0.00006724        0.00016371        0.00013373        0.00009743
       6         -0.474462        2.000000        0.02046464        0.00587735        0.00095137        0.00502287        0.00049070        0.00030661        0.00013242        0.00020764        0.00065269
       7         -0.472385        2.000000        0.01996022        0.00847584        0.00093731        0.00176025        0.00021099        0.00028289        0.00026330        0.00010758        0.00069300
       8         -0.469670        2.000000        0.46771794        0.13981311        0.01289548        0.06807150        0.00851839        0.00741541        0.00808094        0.00305783        0.01855510
       9         -0.467440        2.000000        0.03823023        0.00937570        0.00113064        0.00968130        0.00102465        0.00036927        0.00053072        0.00045936        0.00097529
      10         -0.464000        2.000000        0.48575201        0.08734946        0.01130416        0.13572476        0.01644820        0.00350063        0.00858949        0.00727841        0.01093057
      11         -0.463214        2.000000        0.49508668        0.08843602        0.01216139        0.13796554        0.01723686        0.00478528        0.00788185        0.00578821        0.01121066
      12         -0.462787        2.000000        0.47997706        0.07408256        0.00936239        0.14745332        0.01746901        0.00365876        0.00920608        0.00672535        0.00870083
      13         -0.458775        2.000000        0.49441501        0.10012429        0.00950888        0.13156273        0.01559536        0.00432681        0.00725237        0.00602501        0.01391514
      14         -0.456237        2.000000        0.49840615        0.17716705        0.00894329        0.06045735        0.00771874        0.00864252        0.00770861        0.00300071        0.02104124
      15         -0.439769        2.000000        0.00182840        0.00143590        0.00055367        0.00070618        0.00016212        0.00025075        0.00014594        0.00015250        0.00013625
      16         -0.436378        2.000000        0.00321479        0.00073750        0.00051736        0.00261947        0.00023155        0.00017369        0.00017099        0.00028211        0.00031315
      17         -0.433319        2.000000        0.00435238        0.00134172        0.00039307        0.00325287        0.00037179        0.00017297        0.00015211        0.00028462        0.00036181
      18         -0.432226        2.000000        0.00543708        0.00242274        0.00032755        0.00265657        0.00043979        0.00022996        0.00012614        0.00024387        0.00044565
      19         -0.430549        2.000000        0.01727673        0.00861155        0.00050736        0.00644857        0.00148570        0.00060446        0.00024012        0.00048357        0.00146695
      20         -0.430013        2.000000        0.00658719        0.00321940        0.00045917        0.00294613        0.00049869        0.00045541        0.00017018        0.00023874        0.00066422
      21         -0.427620        2.000000        0.00801047        0.00357259        0.00055571        0.00348814        0.00081866        0.00039598        0.00017654        0.00051262        0.00069856
      22         -0.426709        2.000000        0.32813770        0.11360697        0.00179382        0.15425271        0.03021766        0.00704750        0.00064241        0.01110588        0.02750950
      23         -0.425602        2.000000        0.07708387        0.02592728        0.00066647        0.03758210        0.00689944        0.00225887        0.00025691        0.00246216        0.00634389
      24         -0.423792        2.000000        0.36067894        0.15317152        0.00194761        0.14511225        0.02988413        0.01235520        0.00034363        0.01008666        0.03166866
      25         -0.420867        2.000000        0.38915345        0.18111834        0.00131526        0.12660798        0.03390760        0.01446331        0.00071581        0.00980770        0.03819009
      26         -0.420023        2.000000        0.39325718        0.16095194        0.00146975        0.15205904        0.03398165        0.01150481        0.00055245        0.01091179        0.04109125
      27         -0.418295        2.000000        0.11833417        0.03006101        0.00074774        0.06019835        0.01818975        0.00173410        0.00040787        0.00432697        0.00912090
      28         -0.417960        2.000000        0.30870444        0.07518444        0.00092751        0.14511775        0.05167807        0.00536684        0.00072109        0.01258831        0.02755616
      29         -0.417150        2.000000        0.40968744        0.14397141        0.00124136        0.14510336        0.04465622        0.01298759        0.00119455        0.00964465        0.05104255
      30         -0.416342        2.000000        0.39359258        0.14443944        0.00110319        0.15844729        0.03873203        0.00988038        0.00097915        0.01201012        0.03890789
      31         -0.415822        2.000000        0.39284045        0.18617772        0.00098118        0.11351682        0.02865646        0.01265070        0.00116899        0.00905162        0.05313063
      32         -0.412317        2.000000        0.40776347        0.12787104        0.00167179        0.14621151        0.05667369        0.01055297        0.00135129        0.01188086        0.04889221
      33         -0.376990        2.000000        0.00618380        0.00267276        0.00227952        0.00725851        0.00026586        0.00024486        0.00052760        0.00056538        0.00010975
      34         -0.374031        2.000000        0.00909551        0.00411379        0.00310755        0.01030835        0.00023342        0.00046293        0.00095189        0.00082797        0.00014157
      35         -0.371717        2.000000        0.02448476        0.03312464        0.00886923        0.00200693        0.00030409        0.00283479        0.00203280        0.00058325        0.00081317
      36         -0.368322        2.000000        0.02169119        0.00839217        0.00805001        0.01806501        0.00128069        0.00150942        0.00167348        0.00254151        0.00067954
      37         -0.364970        2.000000        0.24177190        0.16557449        0.03655608        0.15620086        0.00629461        0.01816767        0.01241994        0.01426379        0.00868638
      38         -0.364344        2.000000        0.00986580        0.00440114        0.00394557        0.00550367        0.00077733        0.00117087        0.00095799        0.00101774        0.00075989
      39         -0.363052        2.000000        0.14877652        0.09769301        0.02402352        0.09369833        0.00486014        0.01128898        0.00690840        0.01074700        0.00485066
      40         -0.362294        2.000000        0.25674410        0.09392863        0.03721889        0.25694273        0.01003682        0.01120512        0.01146275        0.02584585        0.00386792
      41         -0.361587        2.000000        0.13803855        0.14203047        0.02003963        0.04417378        0.00400981        0.01351933        0.00745504        0.00544674        0.00547222
      42         -0.360488        2.000000        0.04648688        0.05436003        0.00685930        0.00891923        0.00086889        0.00588931        0.00213423        0.00117947        0.00217209
      43         -0.357793        2.000000        0.02326514        0.01067123        0.00785420        0.01195527        0.00139453        0.00226550        0.00185900        0.00178629        0.00231852
      44         -0.356702        2.000000        0.14029008        0.06513353        0.02860442        0.06886559        0.01360770        0.00853975        0.00906564        0.01131886        0.01068865
      45         -0.355636        2.000000        0.13812287        0.05714938        0.02792276        0.07785707        0.01464155        0.00726158        0.00886500        0.01125236        0.00998240
      46         -0.353184        2.000000        0.29697788        0.10728477        0.06864631        0.16014854        0.03757004        0.01643856        0.01850565        0.02648332        0.01803327
      47         -0.352834        2.000000        0.30483445        0.16674543        0.06150079        0.11009399        0.01814069        0.02499101        0.01816933        0.01571848        0.04062106
      48         -0.350966        2.000000        0.28578325        0.16063828        0.06540967        0.11368442        0.01908975        0.02236609        0.01733456        0.01580592        0.03458841
      49         -0.350295        2.000000        0.29486324        0.12728365        0.05729169        0.15059135        0.03183618        0.01683805        0.01993736        0.01954699        0.02632930
      50         -0.348903        2.000000        0.29785185        0.12678674        0.06334482        0.14996351        0.03289091        0.01760065        0.02046703        0.01990045        0.02416839
      51         -0.341891        2.000000        0.04627934        0.01332931        0.07476370        0.01798565        0.00391407        0.00322136        0.00701411        0.00481676        0.00298149
      52         -0.335762        2.000000        0.03902719        0.00839114        0.08976272        0.00369265        0.00123591        0.00648497        0.00632655        0.00298556        0.00283746
      53         -0.335350        2.000000        0.04224060        0.00927413        0.13688642        0.00312420        0.00052521        0.00447267        0.00683214        0.00073186        0.00243497
      54         -0.331922        2.000000        0.05211123        0.00975666        0.09078724        0.01235106        0.00397136        0.00318070        0.00791341        0.00641149        0.00256856
      55         -0.330685        2.000000        0.05189415        0.00863623        0.09892709        0.00951540        0.00299936        0.00472622        0.00682268        0.00618724        0.00249557
      56         -0.328267        2.000000        0.04758671        0.01376652        0.10670653        0.00432284        0.00115852        0.00569339        0.00671968        0.00268912        0.00345088
      57         -0.327247        2.000000        0.09871892        0.01440252        0.19205583        0.02008548        0.00532523        0.00753881        0.01116405        0.00970500        0.00373098
      58         -0.322066        2.000000        0.14749382        0.03348774        0.19783305        0.03273599        0.00886285        0.01237935        0.01556389        0.01164112        0.00776905
      59         -0.320178        2.000000        0.12711460        0.02507712        0.17218316        0.02811167        0.00781931        0.00819260        0.01390994        0.01158109        0.00683520
      60         -0.318672        2.000000        0.14690399        0.04245925        0.20487119        0.01831311        0.00486655        0.01521508        0.01456051        0.00683783        0.01150547
      61         -0.317505        2.000000        0.16551793        0.02093359        0.26045793        0.04620142        0.01257329        0.00752483        0.01803281        0.01790782        0.00512281
      62         -0.316545        2.000000        0.13410453        0.01806733        0.18011733        0.04353815        0.01018441        0.00528214        0.01560193        0.01462108        0.00440396
      63         -0.314337        2.000000        0.17158726        0.05325450        0.24367775        0.01878992        0.00497052        0.02028097        0.01897698        0.00791054        0.01512505
      64         -0.311352        2.000000        0.10165905        0.00671832        0.29067747        0.01078648        0.00243398        0.00214105        0.00880865        0.00435971        0.00134657
      65         -0.244987        2.000000        0.00606824        0.10148406        0.37343278        0.19676455        0.00498558        0.00510980        0.02170907        0.00684440        0.00497416
      66         -0.242514        2.000000        0.00346433        0.08963157        0.37964788        0.17240360        0.00155254        0.00315415        0.01841159        0.00476826        0.00189380
      67         -0.239071        2.000000        0.00660552        0.17482578        0.37303053        0.08573828        0.00516296        0.00425174        0.01947533        0.00379895        0.00351506
      68         -0.237314        2.000000        0.01120646        0.07438707        0.29782071        0.12359691        0.00945480        0.00751914        0.01054322        0.00557919        0.01365266
      69         -0.235123        2.000000        0.00775447        0.07020219        0.19835272        0.06236128        0.00790805        0.00364542        0.00884348        0.00341651        0.00540817
      70         -0.234267        2.000000        0.01222829        0.08063968        0.30341497        0.12413311        0.01230449        0.00575333        0.01374972        0.00438193        0.00864712
      71         -0.232707        2.000000        0.01075494        0.07914374        0.22111311        0.12929183        0.00731405        0.00773091        0.01688787        0.00215156        0.01160625
      72         -0.230836        2.000000        0.00751261        0.05873521        0.18172601        0.08714769        0.00502357        0.00496067        0.00884440        0.00166829        0.01038223
      73         -0.229323        2.000000        0.01212725        0.07663161        0.23490921        0.13011775        0.00925677        0.00807867        0.00959797        0.00319423        0.01378670
      74         -0.228885        2.000000        0.00903531        0.08221474        0.23995536        0.08328486        0.00796663        0.00499565        0.01450525        0.00242677        0.00974267
      75         -0.227872        2.000000        0.01517611        0.09797230        0.26448183        0.17395976        0.01700435        0.00876483        0.01859634        0.00331523        0.01007473
      76         -0.226922        2.000000        0.01637070        0.06280842        0.30158713        0.18423266        0.01581162        0.00572226        0.01211903        0.00359256        0.01538516
      77         -0.224937        2.000000        0.00984650        0.16177977        0.22727721        0.14142697        0.01705931        0.00746201        0.02872986        0.00608852        0.00593920
      78         -0.222229        2.000000        0.02971373        0.12431870        0.22414255        0.19937448        0.02343983        0.00704499        0.04174756        0.00381516        0.01247818
      79         -0.222130        2.000000        0.00985059        0.13972578        0.18493650        0.12094752        0.00838013        0.00653299        0.03143959        0.00608716        0.01027506
      80         -0.221523        2.000000        0.01915990        0.25826102        0.14203797        0.10414147        0.01176508        0.00494761        0.01758475        0.00698778        0.02016990
      81         -0.220850        2.000000        0.00813180        0.10373518        0.14922485        0.14980517        0.01009509        0.01065054        0.03857959        0.00217891        0.00434179
      82         -0.219565        2.000000        0.01582866        0.20405512        0.16391962        0.18224376        0.01833109        0.00597858        0.02605921        0.00933394        0.01182238
      83         -0.219065        2.000000        0.02151743        0.22433550        0.21407681        0.12434493        0.01494157        0.00720280        0.03676037        0.00865594        0.01844064
      84         -0.218358        2.000000        0.01222672        0.07348807        0.11282642        0.11234235        0.00981090        0.00329776        0.01708155        0.00595033        0.00709133
      85         -0.217963        2.000000        0.02426274        0.08627470        0.12758767        0.16402351        0.01993175        0.00266741        0.01683949        0.00327124        0.01132039
      86         -0.216723        2.000000        0.02490558        0.09590020        0.17608758        0.16134081        0.01782398        0.00507598        0.03232730        0.00294548        0.01470765
      87         -0.215985        2.000000        0.01372082        0.22056752        0.15362786        0.10031980        0.01189002        0.00346553        0.02234593        0.00993895        0.01486565
      88         -0.215704        2.000000        0.00863469        0.15931155        0.15409894        0.07516390        0.00387397        0.00564910        0.02940563        0.01019266        0.01166536
      89         -0.215416        2.000000        0.01267546        0.20961919        0.12289966        0.16419123        0.01297474        0.00555086        0.02484414        0.01070704        0.01367508
      90         -0.214084        2.000000        0.02084993        0.14543037        0.17113647        0.10633144        0.01319146        0.00575727        0.03541171        0.00374370        0.01981287
      91         -0.213191        2.000000        0.01044830        0.07767910        0.15936491        0.05669569        0.00597014        0.00460612        0.03160515        0.00307063        0.01076595
      92         -0.212940        2.000000        0.01520577        0.07794654        0.14251975        0.07175630        0.01069107        0.00365339        0.01567400        0.00391980        0.01001713
      93         -0.212268        2.000000        0.01209416        0.06334414        0.19723751        0.08134174        0.01013686        0.00726367        0.03777520        0.00575183        0.00914482
      94         -0.211154        2.000000        0.02725203        0.21904193        0.16452981        0.10945686        0.01216706        0.00569063        0.02803805        0.00299233        0.03347700
      95         -0.210595        2.000000        0.02450920        0.16771215        0.21186188        0.16526900        0.01821646        0.00980836        0.03641858        0.00674919        0.01967874
      96         -0.210222        2.000000        0.00954829        0.08054555        0.18814189        0.08652222        0.01405048        0.00643417        0.03288831        0.00944233        0.00966761
      97         -0.210060        2.000000        0.01486133        0.05771355        0.14445732        0.10334793        0.01671941        0.00309631        0.01777439        0.00579907        0.00934890
      98         -0.209188        2.000000        0.01471685        0.07925704        0.19599745        0.06791975        0.01021851        0.00401556        0.06082119        0.00399831        0.01350614
      99         -0.207737        2.000000        0.00403850        0.02089668        0.18034118        0.03845241        0.00415563        0.00516710        0.05294012        0.00385478        0.00384444
     100         -0.206875        2.000000        0.00900002        0.05806061        0.12188602        0.03502354        0.00451044        0.00306991        0.02858377        0.00357570        0.00905634
     101         -0.206795        2.000000        0.01105063        0.06223902        0.13788072        0.08877095        0.01266829        0.00344271        0.03177190        0.00396082        0.00914684
     102         -0.205682        2.000000        0.00863631        0.05427772        0.10854007        0.03524712        0.00506629        0.00350118        0.02848302        0.00191035        0.00802130
     103         -0.204717        2.000000        0.00523342        0.03445417        0.15421751        0.06456070        0.00518141        0.00541879        0.04275622        0.00543850        0.00792749
     104         -0.203769        2.000000        0.00722738        0.04360583        0.19058060        0.05305693        0.00709827        0.00573239        0.05821319        0.00563557        0.00481167
     105         -0.203013        2.000000        0.00910014        0.06774203        0.17911716        0.04883864        0.00699952        0.00410390        0.05515628        0.00487105        0.01100747
     106         -0.202455        2.000000        0.01105280        0.07081702        0.15364394        0.09348578        0.00791866        0.00878406        0.03839390        0.00625125        0.01351046
     107         -0.201674        2.000000        0.00648168        0.08079802        0.18514772        0.08580755        0.01128565        0.00800095        0.04105670        0.00452387        0.00835217
     108         -0.200505        2.000000        0.01278389        0.10034117        0.17072076        0.08228317        0.01288517        0.00667681        0.04333996        0.00534444        0.01461865
     109         -0.199291        2.000000        0.00637964        0.07200795        0.16764473        0.05482321        0.00578955        0.00861595        0.03142901        0.00572851        0.01066064
     110         -0.199114        2.000000        0.00581993        0.05720116        0.17706501        0.03027299        0.00916136        0.00616441        0.06047144        0.00547947        0.00317569
     111         -0.198544        2.000000        0.00807273        0.06662505        0.15958463        0.14024255        0.01070965        0.00841042        0.03217008        0.00578547        0.01678283
     112         -0.197813        2.000000        0.00509666        0.03318115        0.09903873        0.04144337        0.00287898        0.00444386        0.02793449        0.00356525        0.00692775
     113         -0.197707        2.000000        0.00478949        0.02040924        0.06645399        0.02569897        0.00547429        0.00154097        0.01536253        0.00218891        0.00290959
     114         -0.196350        2.000000        0.00754045        0.04384640        0.13471503        0.07184360        0.01110650        0.00550378        0.02038771        0.00417889        0.00840329
     115         -0.195518        2.000000        0.00860162        0.09644564        0.15511642        0.05810742        0.01645287        0.00596946        0.03807758        0.00606669        0.00488217
     116         -0.194407        2.000000        0.00395395        0.01797220        0.08746278        0.03622429        0.00432693        0.00314371        0.01297895        0.00405485        0.00496746
     117         -0.194051        2.000000        0.00637698        0.06814609        0.16699774        0.07329651        0.00807869        0.00784424        0.06309345        0.00557766        0.00919741
     118         -0.193002        2.000000        0.00477283        0.03627293        0.07961050        0.03000733        0.00587364        0.00287138        0.01960907        0.00324508        0.00469085
     119         -0.192318        2.000000        0.00833461        0.09078346        0.21885514        0.05663766        0.01556794        0.00945855        0.04780827        0.01021235        0.00689407
     120         -0.191781        2.000000        0.00493436        0.04385389        0.09398585        0.02695649        0.00756716        0.00224433        0.02122446        0.00429126        0.00464339
     121         -0.190833        2.000000        0.00716898        0.08689720        0.14557285        0.06506384        0.01550745        0.00682797        0.03358203        0.00779485        0.00571075
     122         -0.190033        2.000000        0.00320310        0.03957750        0.12577300        0.01470052        0.00572423        0.00254899        0.02857201        0.00396092        0.00392047
     123         -0.188438        2.000000        0.00698691        0.04227321        0.15628770        0.04647243        0.00684249        0.00648205        0.04761165        0.00658992        0.00802901
     124         -0.188038        2.000000        0.00156669        0.02717804        0.08164128        0.01928336        0.00480479        0.00320295        0.01688232        0.00390199        0.00204222
     125         -0.187230        2.000000        0.00415390        0.02417133        0.10113096        0.01997161        0.00312148        0.00261512        0.03228931        0.00191362        0.00514541
     126         -0.184821        2.000000        0.00101927        0.02304808        0.05676309        0.01158641        0.00229667        0.00256555        0.01435406        0.00225597        0.00178999
     127         -0.183544        2.000000        0.00183132        0.01182871        0.05908601        0.02147545        0.00358108        0.00170886        0.01631709        0.00256378        0.00144262
     128         -0.182295        2.000000        0.00396053        0.03592155        0.10980268        0.02894683        0.00628755        0.00409046        0.03188502        0.00376903        0.00348102
     129         -0.180391        2.000000        0.00181286        0.01771132        0.06622435        0.01982426        0.00350842        0.00258864        0.01615045        0.00274163        0.00234611
     130         -0.177837        2.000000        0.00284878        0.02306885        0.05968018        0.02030401        0.00425621        0.00197011        0.01538665        0.00275175        0.00231715
     131         -0.176705        2.000000        0.00157959        0.01343705        0.06410651        0.02054885        0.00280208        0.00240246        0.01884034        0.00265449        0.00180562
     132         -0.176024        2.000000        0.00309872        0.02792911        0.08801620        0.01624603        0.00189310        0.00420398        0.02708741        0.00185671        0.00439843
     133         -0.173403        2.000000        0.00056507        0.02021995        0.02981579        0.01206751        0.00100645        0.00186649        0.00668987        0.00160030        0.00139262
     134         -0.172115        2.000000        0.00031800        0.00853936        0.02198956        0.00834082        0.00131573        0.00134758        0.00386319        0.00104954        0.00066346
     135         -0.171238        2.000000        0.00136399        0.03701750        0.03830752        0.04914808        0.00322455        0.00200694        0.00841602        0.00337163        0.00169540
     136         -0.169236        2.000000        0.00338949        0.02426571        0.07178487        0.04028250        0.00224065        0.00191188        0.03030052        0.00248509        0.00182752
     137         -0.169029        2.000000        0.00085675        0.01829353        0.02228400        0.08086122        0.00210230        0.00128241        0.00767898        0.00348736        0.00112680
     138         -0.167839        2.000000        0.00087559        0.10479014        0.03051607        0.05008807        0.00179800        0.00404205        0.00779889        0.00302929        0.00282864
     139         -0.166991        2.000000        0.00153637        0.49624521        0.03176413        0.17321289        0.00603774        0.01761933        0.00428481        0.00760712        0.01107778
     140         -0.165832        2.000000        0.00203643        0.01103812        0.03602960        0.68205318        0.01449174        0.00214540        0.00919562        0.02503613        0.00365194
     141         -0.162977        2.000000        0.00231025        0.61457652        0.02625747        0.21840706        0.00648639        0.02015204        0.00622038        0.01276905        0.01191425
     142         -0.153491        2.000000        0.00200498        0.06836072        0.01612508        0.74103733        0.07669989        0.00346011        0.00397791        0.02573097        0.00885514
     143         -0.148465        2.000000        0.00101517        0.52344635        0.01266804        0.29566659        0.03233053        0.01527213        0.00206973        0.01047067        0.05729202
     144         -0.146484        2.000000        0.00113166        0.55573456        0.02477668        0.23846856        0.02491992        0.01872862        0.00474785        0.01043161        0.06347875