# Projected DOS for atomic kind Ge at iteration step i = 0, E(Fermi) =    -0.077826 a.u.
#     MO Eigenvalue [a.u.]      Occupation                 s                py                pz                px               d-2               d-1                d0               d+1               d+2
       1         -0.499993        2.000000        0.75421493        0.00540978        0.02057134        0.00452498        0.00064666        0.00050204        0.00793482        0.00061875        0.00090114
       2         -0.486364        2.000000        0.00982484        0.00012609        0.00302287        0.00022655        0.00003121        0.00001270        0.00060371        0.00004403        0.00002680
       3         -0.481915        2.000000        0.65214283        0.03964361        0.01268197        0.07457174        0.00685226        0.00222187        0.00307116        0.00429625        0.00395027
       4         -0.479773        2.000000        0.65671746        0.08075274        0.01438775        0.03532036        0.00338164        0.00406211        0.00280875        0.00197750        0.00812758
       5         -0.475800        2.000000        0.65218899        0.03514691        0.00946862        0.08192383        0.00814182        0.00193575        0.00342507        0.00471669        0.00374740
       6         -0.474302        2.000000        0.62409393        0.04376358        0.00910216        0.06699571        0.00657875        0.00234035        0.00287028        0.00366854        0.00426120
       7         -0.472373        2.000000        0.62715230        0.10236357        0.00861447        0.00957344        0.00170389        0.00524134        0.00344193        0.00091148        0.01055541
       8         -0.470240        2.000000        0.05968319        0.00798346        0.00222994        0.00226317        0.00024540        0.00052409        0.00049223        0.00019176        0.00101518
       9         -0.467469        2.000000        0.59659747        0.03489506        0.00733322        0.07879215        0.00740793        0.00185769        0.00289249        0.00441524        0.00344908
      10         -0.464808        2.000000        0.03378307        0.00198704        0.00198357        0.00437341        0.00049604        0.00014017        0.00042043        0.00023243        0.00019544
      11         -0.463897        2.000000        0.01469375        0.00096483        0.00168132        0.00131909        0.00021048        0.00008867        0.00027822        0.00016350        0.00016181
      12         -0.463054        2.000000        0.03319772        0.00216843        0.00185612        0.00356799        0.00041498        0.00017367        0.00042418        0.00028737        0.00030262
      13         -0.459104        2.000000        0.00694416        0.00038071        0.00141168        0.00059993        0.00008891        0.00008241        0.00020428        0.00005649        0.00009335
      14         -0.456772        2.000000        0.00369188        0.00055218        0.00082668        0.00017334        0.00002957        0.00005275        0.00014042        0.00002924        0.00008880
      15         -0.439602        2.000000        0.54651570        0.13771023        0.00247099        0.07890738        0.01271554        0.00883620        0.00078874        0.00592381        0.01650212
      16         -0.436567        2.000000        0.54309254        0.05989666        0.00246060        0.15617773        0.01968961        0.00550436        0.00069908        0.00923259        0.01257319
      17         -0.432968        2.000000        0.54723455        0.05968143        0.00190716        0.14582095        0.02122506        0.00432483        0.00035183        0.01198402        0.01359882
      18         -0.432234        2.000000        0.53942780        0.10315211        0.00270732        0.10870663        0.01665943        0.00744199        0.00067885        0.00779951        0.01272164
      19         -0.430475        2.000000        0.51106068        0.12425286        0.00096752        0.08078214        0.01343634        0.00741177        0.00048271        0.00520855        0.01553583
      20         -0.429737        2.000000        0.54587458        0.12012796        0.00123447        0.07140094        0.01223705        0.00956163        0.00051451        0.00462828        0.02603221
      21         -0.427427        2.000000        0.42728341        0.07660072        0.00208507        0.07386950        0.01537953        0.00494443        0.00047307        0.00588447        0.01490382
      22         -0.427201        2.000000        0.22782185        0.05750230        0.00146832        0.02372762        0.00439683        0.00395315        0.00030610        0.00145363        0.01190403
      23         -0.425882        2.000000        0.44301897        0.10157190        0.00154132        0.07561178        0.01125071        0.00580191        0.00035809        0.00440179        0.01710458
      24         -0.424109        2.000000        0.05680460        0.01044033        0.00042289        0.01205570        0.00170759        0.00067151        0.00008467        0.00085156        0.00170979
      25         -0.421224        2.000000        0.01417168        0.00232824        0.00044186        0.00285878        0.00049349        0.00022941        0.00005251        0.00019060        0.00049525
      26         -0.420776        2.000000        0.00796636        0.00134861        0.00022669        0.00135835        0.00032942        0.00009465        0.00003005        0.00013799        0.00025484
      27         -0.418843        2.000000        0.01058348        0.00193334        0.00036716        0.00226750        0.00040135        0.00014784        0.00004541        0.00011705        0.00031950
      28         -0.418052        2.000000        0.49553418        0.05401415        0.00262407        0.12074838        0.02351065        0.00351246        0.00053606        0.00854661        0.01093696
      29         -0.417605        2.000000        0.00228172        0.00066501        0.00032127        0.00059480        0.00006938        0.00004160        0.00003678        0.00003215        0.00009001
      30         -0.416749        2.000000        0.03781156        0.00410382        0.00050415        0.00925125        0.00156901        0.00036338        0.00007129        0.00078331        0.00086107
      31         -0.416354        2.000000        0.01654144        0.00214941        0.00035546        0.00387613        0.00070936        0.00019912        0.00004060        0.00026019        0.00046743
      32         -0.412420        2.000000        0.00154430        0.00046886        0.00047599        0.00056839        0.00005317        0.00004146        0.00004383        0.00004707        0.00003991
      33         -0.376712        2.000000        0.38048156        0.08464322        0.03932845        0.20315429        0.01026732        0.00603979        0.00713346        0.01801068        0.00466648
      34         -0.374033        2.000000        0.37617747        0.08248449        0.03899800        0.20436055        0.00934599        0.00673077        0.00763365        0.01737440        0.00463527
      35         -0.371673        2.000000        0.35171179        0.22648212        0.04284681        0.04004192        0.00314975        0.01833117        0.00638399        0.00347666        0.01150809
      36         -0.368010        2.000000        0.35888309        0.08232641        0.06653496        0.10086675        0.01524723        0.01144816        0.00679735        0.01132248        0.00895670
      37         -0.364609        2.000000        0.17178885        0.05224331        0.02132450        0.04828218        0.00653180        0.00469636        0.00414240        0.00496221        0.00702386
      38         -0.364277        2.000000        0.30248240        0.08509227        0.04153576        0.09135921        0.01089342        0.00958616        0.00626420        0.00925818        0.01074696
      39         -0.363327        2.000000        0.11260869        0.03048147        0.01859345        0.03156501        0.00413571        0.00324190        0.00253081        0.00407130        0.00398014
      40         -0.362628        2.000000        0.04712309        0.01175062        0.00839323        0.01515028        0.00147084        0.00175355        0.00082495        0.00160117        0.00126250
      41         -0.361508        2.000000        0.25612704        0.08750823        0.03921513        0.05558887        0.00725272        0.00970871        0.00582819        0.00825766        0.00980254
      42         -0.360476        2.000000        0.36824589        0.12719144        0.04340775        0.09918562        0.01157982        0.01159541        0.01093552        0.00907951        0.01852372
      43         -0.357485        2.000000        0.30912683        0.07805197        0.03512703        0.10464438        0.01482532        0.00651831        0.00944218        0.00943191        0.00854833
      44         -0.356829        2.000000        0.20315666        0.06145402        0.01945629        0.05943748        0.00744726        0.00495572        0.00603348        0.00539779        0.00852529
      45         -0.355666        2.000000        0.31314415        0.08334709        0.04256606        0.09585383        0.01156435        0.00849175        0.00860029        0.00968053        0.01321887
      46         -0.353549        2.000000        0.00900606        0.00249123        0.00119363        0.00358758        0.00036511        0.00027641        0.00022072        0.00026405        0.00034462
      47         -0.353105        2.000000        0.00940572        0.00327997        0.00228961        0.00273545        0.00029578        0.00036963        0.00020296        0.00018278        0.00039451
      48         -0.351746        2.000000        0.00769559        0.00271121        0.00116142        0.00233127        0.00026389        0.00024656        0.00019350        0.00022584        0.00027425
      49         -0.350869        2.000000        0.03304060        0.01023977        0.00626405        0.00981341        0.00113487        0.00083092        0.00088206        0.00088401        0.00140894
      50         -0.349795        2.000000        0.00520785        0.00113365        0.00273267        0.00178164        0.00021691        0.00014136        0.00022675        0.00016519        0.00013264
      51         -0.341445        2.000000        0.21202340        0.02163736        0.21790063        0.03258198        0.00528304        0.00559414        0.00864942        0.00799979        0.00337999
      52         -0.335618        2.000000        0.17629825        0.03514846        0.18807495        0.01141154        0.00098897        0.00873259        0.00971348        0.00145184        0.00664851
      53         -0.334591        2.000000        0.18499282        0.02568049        0.23226619        0.01872085        0.00374055        0.00449634        0.00962129        0.00477826        0.00338312
      54         -0.332320        2.000000        0.20110749        0.02050127        0.18899819        0.03613716        0.00642104        0.00401362        0.01168616        0.00808552        0.00350229
      55         -0.330556        2.000000        0.20113486        0.01661546        0.18029011        0.04147525        0.00658168        0.00413897        0.01183280        0.00824555        0.00266301
      56         -0.328025        2.000000        0.20519906        0.03197390        0.16642505        0.02903465        0.00379376        0.00641528        0.01246122        0.00513507        0.00496714
      57         -0.327747        2.000000        0.11731240        0.02042910        0.12018928        0.01173254        0.00232000        0.00364102        0.00772453        0.00243564        0.00364676
      58         -0.321949        2.000000        0.08212377        0.01479514        0.07154483        0.01132366        0.00153863        0.00242206        0.00436811        0.00145383        0.00230100
      59         -0.320323        2.000000        0.12514679        0.01769720        0.09539571        0.02143388        0.00357390        0.00313115        0.00745742        0.00410057        0.00278764
      60         -0.319711        2.000000        0.05810497        0.00977126        0.04255437        0.00916021        0.00132660        0.00190151        0.00286042        0.00116423        0.00153593
      61         -0.318089        2.000000        0.09470169        0.01112542        0.08229115        0.01598509        0.00260387        0.00216243        0.00516771        0.00248498        0.00180572
      62         -0.317078        2.000000        0.10541670        0.01075532        0.09021132        0.02026876        0.00333733        0.00188617        0.00575348        0.00341604        0.00180726
      63         -0.314862        2.000000        0.06867408        0.01822661        0.04283672        0.00447144        0.00065374        0.00245444        0.00401135        0.00116932        0.00286434
      64         -0.311311        2.000000        0.07674624        0.00375036        0.11798526        0.00626587        0.00091977        0.00083808        0.00412475        0.00135597        0.00043590
      65         -0.244914        2.000000        0.00098943        0.00173318        0.00417746        0.00217900        0.00013082        0.00013871        0.00041067        0.00030875        0.00013003
      66         -0.243035        2.000000        0.00255831        0.00923417        0.02096578        0.01223919        0.00026857        0.00045435        0.00114700        0.00036556        0.00058740
      67         -0.239491        2.000000        0.00295365        0.00802492        0.02637948        0.01072732        0.00048820        0.00077057        0.00218402        0.00035400        0.00070351
      68         -0.237747        2.000000        0.00706610        0.02459924        0.08715039        0.05067010        0.00199068        0.00091625        0.00417493        0.00085842        0.00269545
      69         -0.235392        2.000000        0.00746470        0.07402675        0.15403949        0.06577469        0.00313165        0.00090113        0.00546773        0.00065723        0.00139207
      70         -0.234353        2.000000        0.00612266        0.06276811        0.09293355        0.04277435        0.00190150        0.00085006        0.00287169        0.00051917        0.00219781
      71         -0.232891        2.000000        0.00546672        0.03149092        0.10380749        0.05661645        0.00087970        0.00056898        0.00347718        0.00065130        0.00178144
      72         -0.231013        2.000000        0.00748568        0.06643770        0.21609194        0.12507590        0.00130813        0.00114772        0.00712109        0.00132372        0.00283084
      73         -0.229796        2.000000        0.00401490        0.04192775        0.15511711        0.06482123        0.00152750        0.00082124        0.00628193        0.00103542        0.00049605
      74         -0.228828        2.000000        0.00408582        0.07613767        0.13999985        0.03306835        0.00236192        0.00088279        0.00512476        0.00072118        0.00071390
      75         -0.228236        2.000000        0.00277204        0.03715392        0.10494608        0.04758474        0.00129305        0.00077691        0.00383765        0.00104909        0.00095814
      76         -0.227216        2.000000        0.00419216        0.04167680        0.07902221        0.02578588        0.00086935        0.00077622        0.00249549        0.00024851        0.00187186
      77         -0.225186        2.000000        0.00359157        0.02464172        0.07428857        0.02474604        0.00106670        0.00034782        0.00422510        0.00056278        0.00138396
      78         -0.222770        2.000000        0.00395350        0.02004111        0.04097783        0.00871844        0.00112343        0.00054369        0.00307256        0.00024201        0.00075190
      79         -0.222559        2.000000        0.00497678        0.03414183        0.10080555        0.04241844        0.00112274        0.00058836        0.00494065        0.00072782        0.00222552
      80         -0.221878        2.000000        0.00700616        0.04802875        0.16237475        0.05412796        0.00334149        0.00114121        0.01032045        0.00130830        0.00375818
      81         -0.221192        2.000000        0.00762983        0.04578316        0.13503715        0.05129077        0.00256772        0.00134967        0.00945958        0.00139853        0.00248590
      82         -0.219609        2.000000        0.00638767        0.03095980        0.06693475        0.02024753        0.00187420        0.00051200        0.00338139        0.00036887        0.00219166
      83         -0.219019        2.000000        0.00353850        0.02082171        0.07361501        0.01845084        0.00145396        0.00092729        0.00439284        0.00058842        0.00112158
      84         -0.218250        2.000000        0.01019692        0.05602816        0.16023050        0.06068913        0.00496249        0.00211568        0.01017691        0.00128893        0.00200705
      85         -0.218096        2.000000        0.00874566        0.07299698        0.18458856        0.08310061        0.00437470        0.00188136        0.00857901        0.00151996        0.00556913
      86         -0.216926        2.000000        0.00669079        0.04844847        0.12499776        0.04177068        0.00244722        0.00123101        0.00493975        0.00048177        0.00402635
      87         -0.216603        2.000000        0.00277891        0.02011098        0.07448895        0.02255407        0.00150795        0.00071841        0.00356773        0.00084316        0.00124308
      88         -0.215938        2.000000        0.00619245        0.04078742        0.12154437        0.03823440        0.00191852        0.00057804        0.00595419        0.00079194        0.00381755
      89         -0.215375        2.000000        0.01247517        0.12322743        0.22747297        0.06412151        0.00657543        0.00127016        0.01222374        0.00226158        0.00470582
      90         -0.214313        2.000000        0.00896763        0.04004010        0.08258198        0.03599762        0.00140290        0.00136538        0.01239069        0.00099357        0.00254126
      91         -0.213668        2.000000        0.00796071        0.05780026        0.22199118        0.10185804        0.00512009        0.00225774        0.00814332        0.00219011        0.00384586
      92         -0.212822        2.000000        0.01642867        0.04386458        0.16851882        0.10096137        0.00582170        0.00191627        0.00964938        0.00169146        0.00534278
      93         -0.212368        2.000000        0.01019938        0.07076857        0.18505495        0.05943074        0.00545709        0.00194522        0.01030985        0.00198393        0.00373348
      94         -0.211460        2.000000        0.00684012        0.05215767        0.11051091        0.02407966        0.00250457        0.00173634        0.00896132        0.00147446        0.00303207
      95         -0.210845        2.000000        0.00279984        0.02094959        0.07081165        0.01889530        0.00151828        0.00077169        0.00573435        0.00073146        0.00096118
      96         -0.210332        2.000000        0.00317734        0.01871767        0.07696430        0.02983509        0.00136840        0.00163807        0.00706235        0.00148130        0.00148326
      97         -0.209911        2.000000        0.00835353        0.08940839        0.28861770        0.09059066        0.00557014        0.00377667        0.01662561        0.00223633        0.00500676
      98         -0.208472        2.000000        0.00871687        0.04450435        0.17899906        0.04779436        0.00192424        0.00223507        0.02356688        0.00216018        0.00287309
      99         -0.207782        2.000000        0.00985631        0.04600521        0.13446662        0.05874731        0.00507436        0.00199387        0.01701494        0.00136488        0.00223251
     100         -0.206847        2.000000        0.01353505        0.06653129        0.15356295        0.09759370        0.00568712        0.00248674        0.01504628        0.00335799        0.00287008
     101         -0.206775        2.000000        0.01230278        0.14226427        0.19743871        0.13741309        0.00539054        0.00339824        0.01207113        0.00465931        0.00838201
     102         -0.205701        2.000000        0.02151691        0.13318280        0.15772023        0.10700219        0.00792135        0.00204481        0.01544155        0.00427643        0.00696838
     103         -0.204872        2.000000        0.01156734        0.08167026        0.20990722        0.12683713        0.00610935        0.00464770        0.02175158        0.00237108        0.00440838
     104         -0.203390        2.000000        0.01482399        0.08343197        0.11111230        0.09762307        0.00336554        0.00346864        0.01495822        0.00179128        0.00645300
     105         -0.203061        2.000000        0.01430605        0.04742747        0.13735359        0.08257683        0.00598117        0.00245039        0.01142356        0.00254736        0.00408435
     106         -0.202549        2.000000        0.00793838        0.05396043        0.10333238        0.09149233        0.00354918        0.00225744        0.01359146        0.00291671        0.00298497
     107         -0.202120        2.000000        0.00670355        0.10317504        0.11244587        0.08050219        0.00414442        0.00363225        0.01523659        0.00167813        0.00304659
     108         -0.200516        2.000000        0.00843650        0.04545448        0.14131633        0.07363253        0.00252368        0.00210504        0.01714350        0.00220059        0.00532587
     109         -0.199837        2.000000        0.01559163        0.07714776        0.15817033        0.09822873        0.00898537        0.00308611        0.01793735        0.00215659        0.00516950
     110         -0.199333        2.000000        0.02075546        0.07306121        0.12488893        0.07413005        0.00805348        0.00142371        0.01491678        0.00252792        0.00541549
     111         -0.198386        2.000000        0.01390552        0.08768756        0.11834380        0.09417096        0.00624071        0.00386032        0.01532913        0.00151370        0.00452333
     112         -0.197775        2.000000        0.02172647        0.14538098        0.18241339        0.13882520        0.00667775        0.00301146        0.01449701        0.00491357        0.01147645
     113         -0.197399        2.000000        0.02499024        0.10904036        0.25146466        0.09305473        0.00702237        0.00261036        0.02817349        0.00282752        0.01079293
     114         -0.196308        2.000000        0.01825959        0.11209768        0.19408938        0.09721131        0.00837487        0.00427301        0.02169194        0.00411707        0.00423888
     115         -0.195258        2.000000        0.01214262        0.06274415        0.10538135        0.06923576        0.00519674        0.00161434        0.01370456        0.00139918        0.00432522
     116         -0.194403        2.000000        0.02401306        0.09654564        0.21945759        0.10790092        0.00881218        0.00331296        0.02039543        0.00472077        0.00562992
     117         -0.194195        2.000000        0.02336699        0.15907768        0.19339413        0.06274795        0.00324846        0.00268700        0.02373009        0.00362588        0.01406103
     118         -0.193196        2.000000        0.02053276        0.14779982        0.21673942        0.09512696        0.01012474        0.00300268        0.02621233        0.00353427        0.00782458
     119         -0.192714        2.000000        0.01482545        0.08429373        0.07553370        0.08116375        0.00736466        0.00176045        0.00661862        0.00130534        0.00460235
     120         -0.191732        2.000000        0.03145305        0.16423791        0.22824907        0.11686193        0.01174678        0.00375446        0.01843023        0.00427136        0.01398121
     121         -0.190947        2.000000        0.00862569        0.04082207        0.14146612        0.04354823        0.00344962        0.00238017        0.01728993        0.00225832        0.00408688
     122         -0.190206        2.000000        0.01183192        0.14845146        0.17189371        0.17930481        0.00736232        0.00726640        0.01934608        0.00560444        0.01202156
     123         -0.188575        2.000000        0.00990110        0.09829461        0.21985218        0.12323568        0.00677276        0.00652789        0.02504885        0.00463818        0.00349963
     124         -0.188018        2.000000        0.01035112        0.05171094        0.21794922        0.06583697        0.00730626        0.00306328        0.02040596        0.00501352        0.00365485
     125         -0.187088        2.000000        0.02492975        0.14831195        0.20788580        0.16894669        0.01227062        0.00325004        0.01619842        0.00647885        0.01132705
     126         -0.184927        2.000000        0.01198063        0.15956388        0.20084948        0.16876942        0.01084048        0.00676685        0.02733556        0.00539672        0.01059968
     127         -0.183511        2.000000        0.02758226        0.12414631        0.24063170        0.15791045        0.01363130        0.00510052        0.03513104        0.00460203        0.01220964
     128         -0.182365        2.000000        0.00632497        0.08326238        0.20509270        0.08172563        0.00356639        0.00275582        0.04131703        0.00565088        0.00468725
     129         -0.180289        2.000000        0.01759306        0.12230760        0.22026395        0.17352938        0.01171157        0.00587875        0.02664476        0.00788377        0.01265471
     130         -0.178107        2.000000        0.01596887        0.10587912        0.24356992        0.10088442        0.00537818        0.00422773        0.04656744        0.00483449        0.01194534
     131         -0.176748        2.000000        0.01056358        0.15579062        0.22387871        0.06053269        0.01018153        0.00673331        0.03249318        0.00820186        0.00631219
     132         -0.175907        2.000000        0.01313307        0.10244504        0.26492422        0.10428525        0.00488799        0.00571906        0.04214958        0.00638858        0.01265614
     133         -0.173835        2.000000        0.02414112        0.19433679        0.24464483        0.14165876        0.01193649        0.00774129        0.02740564        0.01069083        0.01914379
     134         -0.172439        2.000000        0.01423669        0.12663496        0.25406959        0.18268119        0.01210424        0.00819972        0.03578053        0.00870779        0.01021859
     135         -0.171874        2.000000        0.01207047        0.13219819        0.24652377        0.12583539        0.00896220        0.00721696        0.03611893        0.00811389        0.01215402
     136         -0.169404        2.000000        0.01540708        0.07798985        0.22857006        0.06993858        0.00988442        0.00629513        0.05038747        0.00355405        0.00367696
     137         -0.168621        2.000000        0.01703740        0.16547639        0.20656586        0.05965085        0.01473837        0.00502239        0.02473460        0.00831544        0.00668756
     138         -0.167958        2.000000        0.01551320        0.10608371        0.20145296        0.11045554        0.01123699        0.00787554        0.02935737        0.00632797        0.00705761
     139         -0.167344        2.000000        0.00674730        0.06389591        0.08827414        0.04883087        0.00507525        0.00488905        0.01193081        0.00295720        0.00419723
     140         -0.166015        2.000000        0.00506574        0.02931782        0.05783923        0.02145615        0.00327673        0.00122421        0.00778416        0.00146615        0.00242235
     141         -0.163289        2.000000        0.00056917        0.00391707        0.00924240        0.00273447        0.00031209        0.00021572        0.00140181        0.00017355        0.00037882
     142         -0.153824        2.000000        0.00008765        0.00082932        0.00262062        0.00078528        0.00005537        0.00005612        0.00038654        0.00004378        0.00008478
     143         -0.148747        2.000000        0.00004954        0.00025232        0.00117158        0.00100736        0.00004015        0.00003522        0.00008298        0.00005989        0.00003117
     144         -0.146958        2.000000        0.00012739        0.00116159        0.00128868        0.00137583        0.00006807        0.00007504        0.00019536        0.00003472        0.00006615