# Projected DOS for atomic kind Ge at iteration step i = 0, E(Fermi) =    -0.078831 a.u.
#     MO Eigenvalue [a.u.]      Occupation                 s                py                pz                px               d-2               d-1                d0               d+1               d+2
       1         -0.500782        2.000000        0.75279300        0.00656970        0.02061132        0.00560541        0.00077326        0.00053170        0.00764585        0.00069233        0.00104873
       2         -0.484402        2.000000        0.01061989        0.00034582        0.00309120        0.00062375        0.00007760        0.00002218        0.00052611        0.00008176        0.00005512
       3         -0.482728        2.000000        0.65524556        0.03722698        0.01317738        0.07439864        0.00682675        0.00211011        0.00322232        0.00417318        0.00372416
       4         -0.480014        2.000000        0.65512243        0.08070316        0.01444848        0.03537162        0.00346319        0.00395383        0.00269517        0.00208251        0.00791558
       5         -0.475999        2.000000        0.65100863        0.03585701        0.00880748        0.08156850        0.00783706        0.00185569        0.00360892        0.00496867        0.00393856
       6         -0.474619        2.000000        0.64749131        0.05386750        0.01050025        0.06046140        0.00617326        0.00267276        0.00287301        0.00341139        0.00569778
       7         -0.472747        2.000000        0.65183287        0.10188734        0.00894476        0.01361960        0.00218853        0.00560922        0.00359552        0.00098175        0.01035558
       8         -0.467979        2.000000        0.51854591        0.02969524        0.00657163        0.06919897        0.00650043        0.00163860        0.00231741        0.00357762        0.00290722
       9         -0.467273        2.000000        0.12896997        0.00727000        0.00275623        0.01657177        0.00171400        0.00041550        0.00087490        0.00115915        0.00076209
      10         -0.462568        2.000000        0.01478603        0.00128063        0.00183722        0.00109488        0.00017190        0.00013346        0.00032940        0.00010375        0.00021855
      11         -0.461489        2.000000        0.01554829        0.00077308        0.00127832        0.00194085        0.00026047        0.00007404        0.00024142        0.00016267        0.00009705
      12         -0.460951        2.000000        0.00713179        0.00045501        0.00153936        0.00062311        0.00011068        0.00004934        0.00025613        0.00009705        0.00007600
      13         -0.457698        2.000000        0.00576837        0.00032614        0.00148921        0.00048532        0.00007659        0.00007378        0.00019192        0.00005162        0.00008141
      14         -0.455101        2.000000        0.00312143        0.00043466        0.00087948        0.00020276        0.00003515        0.00004031        0.00014038        0.00003690        0.00006630
      15         -0.440103        2.000000        0.54834961        0.13833642        0.00260129        0.07938188        0.01288758        0.00854588        0.00086892        0.00587649        0.01662480
      16         -0.436184        2.000000        0.54370157        0.06113127        0.00255567        0.15524669        0.01851269        0.00531629        0.00068172        0.00966869        0.01237386
      17         -0.434953        2.000000        0.54693633        0.07611750        0.00166460        0.13165327        0.01727365        0.00598835        0.00035967        0.01085457        0.01575854
      18         -0.432245        2.000000        0.54680651        0.10439341        0.00213501        0.10523304        0.01846366        0.00784218        0.00084915        0.00738066        0.01350831
      19         -0.430972        2.000000        0.53586626        0.12386305        0.00139865        0.08824782        0.01472697        0.00742976        0.00052980        0.00568900        0.01639428
      20         -0.430039        2.000000        0.54943457        0.11971827        0.00166504        0.07905435        0.01241663        0.00894041        0.00032563        0.00507266        0.02473083
      21         -0.428904        2.000000        0.55199483        0.09051101        0.00276324        0.10337626        0.02206231        0.00597489        0.00090461        0.00738602        0.01732429
      22         -0.425372        2.000000        0.31740268        0.08292067        0.00095458        0.04125099        0.00682221        0.00452504        0.00031179        0.00282629        0.01470184
      23         -0.424567        2.000000        0.22021565        0.04988391        0.00090054        0.03532463        0.00585339        0.00314947        0.00016017        0.00210789        0.00888445
      24         -0.422218        2.000000        0.02790379        0.00477591        0.00046182        0.00583345        0.00092358        0.00034804        0.00006153        0.00045513        0.00081487
      25         -0.419712        2.000000        0.46796160        0.05200066        0.00242512        0.11144042        0.02085030        0.00366815        0.00054878        0.00774004        0.01144094
      26         -0.419150        2.000000        0.07312578        0.01078585        0.00069582        0.01571158        0.00312825        0.00075473        0.00012148        0.00111650        0.00193541
      27         -0.418734        2.000000        0.01937468        0.00227193        0.00037428        0.00503613        0.00085473        0.00016611        0.00006568        0.00037678        0.00044754
      28         -0.417233        2.000000        0.00476591        0.00090561        0.00041206        0.00101942        0.00015760        0.00011448        0.00004534        0.00013127        0.00013904
      29         -0.416367        2.000000        0.00169392        0.00032725        0.00021721        0.00043758        0.00006038        0.00004617        0.00002372        0.00004520        0.00006756
      30         -0.414495        2.000000        0.00286482        0.00047397        0.00029679        0.00064297        0.00010764        0.00004954        0.00003339        0.00007472        0.00010575
      31         -0.413659        2.000000        0.00417028        0.00063652        0.00032659        0.00119583        0.00015560        0.00004786        0.00003757        0.00009346        0.00010049
      32         -0.412180        2.000000        0.00129598        0.00040283        0.00045550        0.00057610        0.00004254        0.00004273        0.00003989        0.00004823        0.00003252
      33         -0.377556        2.000000        0.37988917        0.07732511        0.03276238        0.22130065        0.01111239        0.00409147        0.00776636        0.01903067        0.00339538
      34         -0.374703        2.000000        0.38332573        0.08938174        0.03968520        0.19297388        0.00980486        0.00656085        0.00868208        0.01689184        0.00569958
      35         -0.372574        2.000000        0.35884475        0.23106889        0.05577467        0.01791846        0.00208751        0.02089262        0.00553745        0.00433840        0.01217845
      36         -0.367351        2.000000        0.38159845        0.10079998        0.06541457        0.10482943        0.01592609        0.01245731        0.00740480        0.01100083        0.00906516
      37         -0.364531        2.000000        0.37834828        0.10706493        0.05310604        0.11117770        0.01354452        0.01229665        0.00756414        0.01130427        0.01304608
      38         -0.364406        2.000000        0.03413692        0.01013301        0.00415455        0.01079199        0.00145612        0.00088610        0.00074033        0.00113416        0.00114628
      39         -0.362500        2.000000        0.28710550        0.08469423        0.04118169        0.07114350        0.00897076        0.00942768        0.00693045        0.00912833        0.01282269
      40         -0.361758        2.000000        0.18272797        0.04980455        0.02452040        0.05260771        0.00684784        0.00526015        0.00435736        0.00603231        0.00793511
      41         -0.361058        2.000000        0.19917337        0.05676038        0.03201202        0.05810309        0.00565422        0.00591119        0.00479427        0.00588946        0.00916749
      42         -0.360403        2.000000        0.25867102        0.06472427        0.02548397        0.09318622        0.01292251        0.00537826        0.00825695        0.00798896        0.00635153
      43         -0.359948        2.000000        0.31182462        0.10428215        0.04039841        0.07776923        0.01013951        0.00922939        0.00905774        0.00768541        0.01301277
      44         -0.357569        2.000000        0.37444820        0.10659983        0.04614300        0.11541777        0.01268210        0.01140490        0.01167143        0.01065184        0.01611601
      45         -0.354898        2.000000        0.03124434        0.00809104        0.00450420        0.01079151        0.00144961        0.00072773        0.00059230        0.00117523        0.00095029
      46         -0.352233        2.000000        0.02025529        0.00628006        0.00241525        0.00653409        0.00073876        0.00073658        0.00047020        0.00049545        0.00078218
      47         -0.351540        2.000000        0.01838043        0.00491401        0.00934151        0.00471069        0.00053553        0.00047365        0.00063164        0.00051606        0.00056853
      48         -0.351319        2.000000        0.00628153        0.00232241        0.00193585        0.00190149        0.00017304        0.00018590        0.00016248        0.00017597        0.00030855
      49         -0.348793        2.000000        0.00655946        0.00134024        0.00479783        0.00177060        0.00020251        0.00019964        0.00030976        0.00019564        0.00019630
      50         -0.346637        2.000000        0.01666971        0.00311595        0.01323053        0.00377376        0.00045405        0.00043419        0.00063468        0.00055329        0.00038243
      51         -0.343195        2.000000        0.19067496        0.01929840        0.20540373        0.02906171        0.00411840        0.00481396        0.00792317        0.00659388        0.00310767
      52         -0.337296        2.000000        0.21977178        0.03096036        0.22453364        0.02721139        0.00510701        0.00631391        0.01079800        0.00641347        0.00463899
      53         -0.334571        2.000000        0.19255300        0.02802119        0.21850209        0.01625653        0.00275302        0.00805558        0.00845164        0.00404660        0.00555418
      54         -0.333273        2.000000        0.25245467        0.03035305        0.20944269        0.04041969        0.00635356        0.00555290        0.01444558        0.00846851        0.00496635
      55         -0.331061        2.000000        0.17604003        0.01595947        0.16557347        0.03473637        0.00542117        0.00281724        0.01134522        0.00737553        0.00281481
      56         -0.328874        2.000000        0.15944384        0.03204835        0.15476253        0.01036598        0.00140186        0.00751248        0.01037012        0.00208364        0.00563442
      57         -0.325705        2.000000        0.18510516        0.02041986        0.19357364        0.03343714        0.00563360        0.00434468        0.01193506        0.00612842        0.00307229
      58         -0.322332        2.000000        0.06485877        0.01116014        0.06188163        0.00781179        0.00108979        0.00195463        0.00331226        0.00093890        0.00177486
      59         -0.320076        2.000000        0.08797586        0.01449861        0.05883261        0.01427111        0.00232371        0.00244278        0.00527993        0.00215800        0.00256373
      60         -0.318306        2.000000        0.09242806        0.01098607        0.06871893        0.01879173        0.00279575        0.00239512        0.00483307        0.00312482        0.00163744
      61         -0.317001        2.000000        0.07730840        0.01211245        0.05424674        0.01160488        0.00193928        0.00206882        0.00447658        0.00241406        0.00207661
      62         -0.314747        2.000000        0.05782366        0.01262177        0.03916623        0.00589877        0.00095027        0.00183181        0.00333669        0.00139756        0.00191567
      63         -0.313784        2.000000        0.04904345        0.00715083        0.03624652        0.00927411        0.00141082        0.00140232        0.00294353        0.00135568        0.00118510
      64         -0.311251        2.000000        0.07697954        0.00327798        0.12878813        0.00477656        0.00081172        0.00053798        0.00470031        0.00106401        0.00036762
      65         -0.243601        2.000000        0.00148151        0.00596320        0.01138089        0.00605169        0.00017255        0.00028066        0.00080067        0.00047770        0.00028309
      66         -0.241735        2.000000        0.00272597        0.01215417        0.02738813        0.01729589        0.00030582        0.00054557        0.00128930        0.00045950        0.00070762
      67         -0.238405        2.000000        0.00226175        0.02100301        0.03994706        0.01291198        0.00061590        0.00096088        0.00170382        0.00035617        0.00064665
      68         -0.236502        2.000000        0.00877022        0.04091949        0.12439729        0.07209648        0.00345098        0.00124746        0.00475843        0.00120507        0.00322543
      69         -0.235281        2.000000        0.00847241        0.13302119        0.18927760        0.05944363        0.00383361        0.00080849        0.00634613        0.00076094        0.00203099
      70         -0.233688        2.000000        0.00451977        0.03321310        0.10751364        0.06334145        0.00094336        0.00060916        0.00311626        0.00070400        0.00151465
      71         -0.232604        2.000000        0.00799777        0.07047566        0.19725103        0.11910812        0.00083012        0.00097764        0.00680617        0.00127167        0.00278656
      72         -0.230223        2.000000        0.00441340        0.04377811        0.09241829        0.03517914        0.00157099        0.00095299        0.00384469        0.00051977        0.00145875
      73         -0.229040        2.000000        0.00474316        0.06084102        0.16278597        0.04992697        0.00237736        0.00090150        0.00651181        0.00102711        0.00153217
      74         -0.227935        2.000000        0.00348290        0.05180513        0.14708749        0.04911973        0.00106142        0.00077952        0.00637461        0.00064460        0.00086027
      75         -0.226745        2.000000        0.00559086        0.03838909        0.10307231        0.05190183        0.00115067        0.00072904        0.00311553        0.00107518        0.00228441
      76         -0.226274        2.000000        0.00497151        0.02332396        0.06785674        0.03075322        0.00120298        0.00069269        0.00206869        0.00049343        0.00210065
      77         -0.224692        2.000000        0.00323693        0.03987492        0.10133291        0.03721378        0.00139766        0.00030756        0.00605368        0.00084625        0.00139060
      78         -0.221369        2.000000        0.00690089        0.08206900        0.21306433        0.06443912        0.00279849        0.00148123        0.00971474        0.00215496        0.00483993
      79         -0.221187        2.000000        0.00533398        0.03516712        0.07833988        0.02964234        0.00218114        0.00051937        0.00298669        0.00050173        0.00281085
      80         -0.220294        2.000000        0.00547134        0.03500064        0.10523143        0.04146924        0.00180490        0.00133249        0.01231655        0.00145686        0.00166940
      81         -0.219917        2.000000        0.00474162        0.03885150        0.08602768        0.02095309        0.00164618        0.00071532        0.00929460        0.00071795        0.00130898
      82         -0.219797        2.000000        0.00677181        0.04399931        0.09153969        0.02003521        0.00269679        0.00092147        0.00481124        0.00048697        0.00293948
      83         -0.219012        2.000000        0.00850365        0.09005902        0.20182947        0.08122284        0.00463924        0.00189264        0.00776499        0.00152740        0.00567875
      84         -0.218618        2.000000        0.00568178        0.04229999        0.09328862        0.02515189        0.00213916        0.00126703        0.00481555        0.00106856        0.00269837
      85         -0.217441        2.000000        0.01290263        0.13248071        0.24311795        0.06594155        0.00707128        0.00129506        0.01667679        0.00354891        0.00462973
      86         -0.217145        2.000000        0.01411303        0.05763835        0.13505483        0.06534125        0.00539337        0.00150628        0.01130421        0.00109101        0.00301538
      87         -0.216106        2.000000        0.00814908        0.07371566        0.13611355        0.05057586        0.00336925        0.00101175        0.01058555        0.00153448        0.00269536
      88         -0.215561        2.000000        0.00576452        0.02679517        0.10045512        0.02610152        0.00181440        0.00106585        0.00841719        0.00096469        0.00237483
      89         -0.215045        2.000000        0.00449503        0.03390212        0.10502974        0.03938498        0.00246442        0.00183194        0.00688638        0.00087758        0.00239935
      90         -0.213780        2.000000        0.00948270        0.05481554        0.16949634        0.05362944        0.00521266        0.00128737        0.00723956        0.00126262        0.00427094
      91         -0.213342        2.000000        0.00703431        0.04477202        0.16177031        0.05281166        0.00327249        0.00155658        0.01298342        0.00168004        0.00248049
      92         -0.212802        2.000000        0.01308249        0.03653676        0.08624198        0.04301644        0.00385546        0.00111025        0.00941616        0.00173955        0.00248871
      93         -0.211194        2.000000        0.01063991        0.05553724        0.14521728        0.06024210        0.00324312        0.00210796        0.01222616        0.00148936        0.00365606
      94         -0.210879        2.000000        0.01140052        0.08937429        0.16644354        0.05774237        0.00379416        0.00141703        0.01341344        0.00195171        0.00534920
      95         -0.210662        2.000000        0.00443422        0.04426830        0.15511101        0.06000544        0.00372092        0.00238571        0.01194490        0.00223947        0.00149527
      96         -0.209965        2.000000        0.00523065        0.03094313        0.10885703        0.03845886        0.00176694        0.00233711        0.01226863        0.00194733        0.00187307
      97         -0.209898        2.000000        0.00804265        0.05119869        0.15024415        0.06953742        0.00502374        0.00154953        0.00870032        0.00202798        0.00295195
      98         -0.209112        2.000000        0.01074328        0.04950810        0.12950770        0.03758294        0.00249387        0.00183258        0.01246403        0.00163574        0.00461239
      99         -0.208246        2.000000        0.00739197        0.03645559        0.16685175        0.05193873        0.00320962        0.00250950        0.01498842        0.00232257        0.00246295
     100         -0.207203        2.000000        0.00525657        0.05826342        0.20742361        0.08755186        0.00305442        0.00530635        0.02107230        0.00269274        0.00274648
     101         -0.206701        2.000000        0.01477715        0.07525595        0.14385109        0.14271795        0.00643154        0.00235868        0.01473615        0.00310014        0.00598274
     102         -0.205504        2.000000        0.01598195        0.11927824        0.14710377        0.16031775        0.00624773        0.00391381        0.01525433        0.00490944        0.00687705
     103         -0.204729        2.000000        0.01486700        0.07206740        0.10012839        0.06955508        0.00394138        0.00153030        0.00891876        0.00165918        0.00762370
     104         -0.203569        2.000000        0.00673814        0.05937660        0.14387498        0.09092724        0.00333573        0.00337921        0.01768328        0.00196982        0.00245275
     105         -0.203144        2.000000        0.02533715        0.06919287        0.16720354        0.10343859        0.00776148        0.00264027        0.01111585        0.00257928        0.00705196
     106         -0.202392        2.000000        0.01667886        0.07164606        0.14898733        0.12388313        0.00561629        0.00279775        0.02625155        0.00407015        0.00468158
     107         -0.200778        2.000000        0.00839408        0.08085769        0.12064172        0.05752009        0.00362473        0.00233163        0.01352709        0.00127705        0.00436145
     108         -0.200393        2.000000        0.00719994        0.06373467        0.12597845        0.09159205        0.00429615        0.00274741        0.01368806        0.00352699        0.00350871
     109         -0.199674        2.000000        0.00813161        0.06629315        0.13530688        0.08409586        0.00496534        0.00282715        0.01651373        0.00308597        0.00376531
     110         -0.198962        2.000000        0.00996286        0.07416760        0.19277151        0.07652735        0.00510930        0.00332159        0.02538492        0.00230170        0.00327459
     111         -0.198505        2.000000        0.01396405        0.11172437        0.15812440        0.11512792        0.00451153        0.00522276        0.01775548        0.00287033        0.00718108
     112         -0.198134        2.000000        0.02418710        0.08847985        0.22506687        0.13139870        0.01144545        0.00191870        0.02563665        0.00358682        0.00590436
     113         -0.197361        2.000000        0.00837269        0.08051627        0.11429269        0.04261826        0.00372712        0.00157243        0.01274384        0.00306869        0.00456430
     114         -0.197032        2.000000        0.03743377        0.22349335        0.20077986        0.07002195        0.00775111        0.00358894        0.01900062        0.00208660        0.01690186
     115         -0.196117        2.000000        0.01411684        0.04841568        0.13445888        0.06244389        0.00666387        0.00203859        0.01153090        0.00163422        0.00504515
     116         -0.195006        2.000000        0.02947944        0.12937168        0.23144796        0.12024946        0.01112994        0.00440856        0.01925786        0.00533775        0.00741253
     117         -0.193661        2.000000        0.02027148        0.12663555        0.18336762        0.09385091        0.01239047        0.00294875        0.02006573        0.00393311        0.00682037
     118         -0.193271        2.000000        0.00683061        0.06011856        0.11817159        0.05753669        0.00298282        0.00200296        0.01489442        0.00286191        0.00470939
     119         -0.192196        2.000000        0.02387273        0.14944478        0.15591369        0.08854783        0.00575728        0.00306033        0.01187851        0.00315134        0.01349824
     120         -0.192116        2.000000        0.01459928        0.10853213        0.11382448        0.10931610        0.01022771        0.00275538        0.01472097        0.00276084        0.00299451
     121         -0.190526        2.000000        0.02315654        0.15185784        0.15345975        0.16563482        0.01074990        0.00349993        0.01732762        0.00469105        0.00874799
     122         -0.189791        2.000000        0.00707158        0.05862389        0.13641286        0.10255052        0.00339521        0.00501804        0.01516910        0.00306668        0.00778152
     123         -0.189413        2.000000        0.01372267        0.08523566        0.19621563        0.06488287        0.00742464        0.00272569        0.01771708        0.00539429        0.00533303
     124         -0.188015        2.000000        0.02117313        0.10789901        0.16614661        0.12004718        0.00900698        0.00255532        0.01127330        0.00276003        0.01055636
     125         -0.187314        2.000000        0.01587622        0.09501443        0.26840880        0.13426161        0.00613108        0.00557417        0.02958225        0.00736151        0.00664105
     126         -0.184748        2.000000        0.01598712        0.11578807        0.21306267        0.16007638        0.01095319        0.00674730        0.03154075        0.00377730        0.00879710
     127         -0.183454        2.000000        0.02387976        0.08032927        0.24001347        0.15309893        0.01271690        0.00502450        0.02689678        0.00430225        0.01139172
     128         -0.182698        2.000000        0.01003496        0.13401536        0.17717149        0.08511596        0.00781808        0.00346352        0.03213519        0.00607232        0.00529944
     129         -0.180726        2.000000        0.01555647        0.11728690        0.20113261        0.19616259        0.00961310        0.00657800        0.02513511        0.00701977        0.01286792
     130         -0.178010        2.000000        0.00986975        0.08441382        0.26155244        0.07941863        0.00637693        0.00512185        0.04031490        0.00523259        0.00828618
     131         -0.177089        2.000000        0.01466575        0.12553850        0.25703685        0.09966627        0.00580219        0.00506237        0.04334533        0.00581446        0.01297323
     132         -0.175377        2.000000        0.01128895        0.11413564        0.20833602        0.08639214        0.00660730        0.00536421        0.03495210        0.00776068        0.00899513
     133         -0.172758        2.000000        0.01932099        0.10961822        0.26164236        0.13727716        0.01040994        0.00693117        0.03336407        0.00939882        0.01403166
     134         -0.172236        2.000000        0.02205737        0.28583310        0.20688955        0.17755302        0.02119298        0.00882829        0.01731781        0.01160058        0.01438407
     135         -0.171570        2.000000        0.01802166        0.20392904        0.23118967        0.17098555        0.01604741        0.00916881        0.02137866        0.01069737        0.01059769
     136         -0.169675        2.000000        0.01940751        0.15494902        0.27227423        0.09024329        0.00658548        0.01031126        0.03202296        0.00878707        0.01672724
     137         -0.168661        2.000000        0.01538790        0.04731430        0.24680174        0.06959018        0.00762420        0.00631356        0.05968409        0.00277145        0.00346900
     138         -0.167512        2.000000        0.01717089        0.11885969        0.24815084        0.11160122        0.01236199        0.00745181        0.04231858        0.00654896        0.00863455
     139         -0.165704        2.000000        0.00111250        0.01247824        0.01824551        0.00744658        0.00082729        0.00075994        0.00322828        0.00048232        0.00072439
     140         -0.164523        2.000000        0.00311260        0.01150870        0.04554141        0.01601118        0.00145560        0.00096025        0.00921342        0.00061445        0.00170879
     141         -0.161835        2.000000        0.00046632        0.00240057        0.00742050        0.00333046        0.00027465        0.00019825        0.00147059        0.00011741        0.00022426
     142         -0.151911        2.000000        0.00006903        0.00054999        0.00159006        0.00044409        0.00003010        0.00003397        0.00023351        0.00002503        0.00005478
     143         -0.147358        2.000000        0.00004651        0.00041104        0.00075218        0.00098218        0.00003703        0.00003306        0.00005071        0.00005073        0.00003110
     144         -0.145011        2.000000        0.00008993        0.00120566        0.00111923        0.00376379        0.00008682        0.00006914        0.00011037        0.00009810        0.00006870