# Projected DOS for atomic kind Ge at iteration step i = 0, E(Fermi) =    -0.077977 a.u.
#     MO Eigenvalue [a.u.]      Occupation                 s                py                pz                px               d-2               d-1                d0               d+1               d+2
       1         -0.500097        2.000000        0.75399536        0.00569210        0.02056107        0.00460812        0.00066092        0.00051085        0.00787388        0.00062759        0.00093577
       2         -0.485895        2.000000        0.00945275        0.00011854        0.00305705        0.00021259        0.00003134        0.00001203        0.00059730        0.00004538        0.00002635
       3         -0.482191        2.000000        0.65250118        0.03734125        0.01272832        0.07632809        0.00699390        0.00213164        0.00302922        0.00436162        0.00370614
       4         -0.479597        2.000000        0.65713214        0.08455061        0.01445325        0.03181153        0.00306386        0.00420474        0.00282797        0.00183005        0.00848501
       5         -0.475765        2.000000        0.65201702        0.03431377        0.00933401        0.08287413        0.00819355        0.00185773        0.00346617        0.00484233        0.00366861
       6         -0.474462        2.000000        0.63231759        0.04424018        0.00944220        0.06748040        0.00673848        0.00239925        0.00282889        0.00363452        0.00434470
       7         -0.472385        2.000000        0.63796174        0.10428114        0.00878383        0.00936198        0.00165980        0.00538814        0.00352491        0.00092921        0.01080596
       8         -0.469670        2.000000        0.04768080        0.00591339        0.00199521        0.00237443        0.00023983        0.00040685        0.00040079        0.00017302        0.00075975
       9         -0.467440        2.000000        0.60631199        0.03479167        0.00745688        0.08082359        0.00762241        0.00186022        0.00294256        0.00451238        0.00342951
      10         -0.464000        2.000000        0.02193096        0.00143583        0.00179017        0.00258267        0.00032245        0.00011635        0.00034801        0.00014763        0.00016568
      11         -0.463214        2.000000        0.01040474        0.00082927        0.00178093        0.00072660        0.00013435        0.00007296        0.00028091        0.00010709        0.00013580
      12         -0.462787        2.000000        0.03030556        0.00173047        0.00154308        0.00350893        0.00041484        0.00015012        0.00036385        0.00029211        0.00024513
      13         -0.458775        2.000000        0.00659302        0.00035994        0.00143086        0.00056914        0.00008634        0.00007790        0.00019994        0.00005600        0.00008909
      14         -0.456237        2.000000        0.00360002        0.00051993        0.00084362        0.00018525        0.00003092        0.00005153        0.00014159        0.00003071        0.00008351
      15         -0.439769        2.000000        0.54659280        0.13799252        0.00245010        0.07877969        0.01271349        0.00879437        0.00080238        0.00587775        0.01651559
      16         -0.436378        2.000000        0.54284275        0.05858987        0.00256534        0.15763513        0.01967975        0.00540417        0.00068705        0.00938144        0.01236091
      17         -0.433319        2.000000        0.54600113        0.06332351        0.00200050        0.14452101        0.01980150        0.00471236        0.00030184        0.01196573        0.01383685
      18         -0.432226        2.000000        0.54338027        0.09892725        0.00250524        0.10935927        0.01793665        0.00721814        0.00077427        0.00780748        0.01312117
      19         -0.430549        2.000000        0.52256802        0.12671928        0.00100867        0.08198256        0.01378543        0.00779028        0.00051337        0.00521342        0.01616765
      20         -0.430013        2.000000        0.54736261        0.12256841        0.00133711        0.07207474        0.01222474        0.00937487        0.00047499        0.00478080        0.02508851
      21         -0.427620        2.000000        0.54980781        0.10153929        0.00266734        0.08964993        0.01911946        0.00689234        0.00070171        0.00659629        0.02043970
      22         -0.426709        2.000000        0.09825822        0.02737127        0.00086382        0.01076563        0.00152244        0.00153970        0.00014084        0.00096470        0.00491521
      23         -0.425602        2.000000        0.43989029        0.10461764        0.00148770        0.06975359        0.01061964        0.00607730        0.00036128        0.00405670        0.01814243
      24         -0.423792        2.000000        0.05010120        0.00953282        0.00049165        0.01016370        0.00149120        0.00063658        0.00008969        0.00071289        0.00156691
      25         -0.420867        2.000000        0.01441477        0.00237482        0.00041796        0.00312262        0.00048480        0.00022472        0.00004747        0.00019372        0.00049381
      26         -0.420023        2.000000        0.01240997        0.00169988        0.00028996        0.00239748        0.00054221        0.00013742        0.00003703        0.00021208        0.00036366
      27         -0.418295        2.000000        0.39258176        0.04412074        0.00202912        0.09498005        0.01827382        0.00287388        0.00046147        0.00654491        0.00895465
      28         -0.417960        2.000000        0.13282593        0.01362861        0.00089454        0.03307206        0.00623776        0.00093641        0.00015163        0.00249953        0.00296156
      29         -0.417150        2.000000        0.00293604        0.00082717        0.00036045        0.00062596        0.00009303        0.00004259        0.00004655        0.00007058        0.00009606
      30         -0.416342        2.000000        0.01318800        0.00158635        0.00039846        0.00341526        0.00049862        0.00017179        0.00004434        0.00027145        0.00032549
      31         -0.415822        2.000000        0.01425067        0.00170260        0.00029049        0.00342391        0.00058859        0.00016061        0.00003505        0.00026370        0.00039112
      32         -0.412317        2.000000        0.00155458        0.00047113        0.00048070        0.00057187        0.00005324        0.00004367        0.00004298        0.00005014        0.00003956
      33         -0.376990        2.000000        0.38050165        0.08123043        0.03743303        0.20924755        0.01073150        0.00536047        0.00738572        0.01841832        0.00414782
      34         -0.374031        2.000000        0.37761107        0.08238642        0.03952050        0.20386951        0.00936333        0.00656163        0.00773711        0.01750518        0.00473368
      35         -0.371717        2.000000        0.34880168        0.23185716        0.04483646        0.03006012        0.00245967        0.01907401        0.00614398        0.00318186        0.01162478
      36         -0.368322        2.000000        0.36984262        0.08726532        0.06903698        0.10339641        0.01565106        0.01204356        0.00708479        0.01137834        0.00912903
      37         -0.364970        2.000000        0.06622601        0.02072612        0.00926545        0.01846303        0.00205979        0.00205904        0.00165378        0.00198062        0.00290614
      38         -0.364344        2.000000        0.39417361        0.11497751        0.05155290        0.11247572        0.01415425        0.01247544        0.00838750        0.01125103        0.01460938
      39         -0.363052        2.000000        0.20054891        0.05935022        0.03254406        0.05053772        0.00659024        0.00637675        0.00485464        0.00695784        0.00798937
      40         -0.362294        2.000000        0.04760222        0.01148997        0.00937473        0.01476359        0.00156026        0.00160824        0.00067769        0.00166618        0.00104849
      41         -0.361587        2.000000        0.21350920        0.06459269        0.03134855        0.05291091        0.00699184        0.00723909        0.00501220        0.00716775        0.00859291
      42         -0.360488        2.000000        0.33752241        0.11934319        0.03977697        0.08957174        0.01067045        0.01094636        0.00993475        0.00827478        0.01643953
      43         -0.357793        2.000000        0.37918738        0.09658960        0.04237709        0.12754065        0.01765016        0.00802082        0.01144024        0.01132153        0.01105131
      44         -0.356702        2.000000        0.22183979        0.06617431        0.02482291        0.06277892        0.00702293        0.00597784        0.00670277        0.00587921        0.01066518
      45         -0.355636        2.000000        0.21964917        0.05597364        0.03114784        0.07057797        0.00876361        0.00573712        0.00584222        0.00729660        0.00833286
      46         -0.353184        2.000000        0.00860008        0.00290140        0.00213313        0.00269201        0.00027434        0.00037379        0.00021146        0.00015347        0.00032993
      47         -0.352834        2.000000        0.00730497        0.00244869        0.00100558        0.00271360        0.00026432        0.00020921        0.00016286        0.00020643        0.00031845
      48         -0.350966        2.000000        0.01848373        0.00581444        0.00586078        0.00466279        0.00058098        0.00049091        0.00055651        0.00048580        0.00073141
      49         -0.350295        2.000000        0.01566766        0.00458436        0.00233886        0.00559073        0.00057395        0.00044436        0.00044894        0.00042529        0.00064392
      50         -0.348903        2.000000        0.00863106        0.00195499        0.00523584        0.00226345        0.00031179        0.00022379        0.00032712        0.00029276        0.00022919
      51         -0.341891        2.000000        0.20604449        0.02112552        0.21199707        0.03183954        0.00496658        0.00538889        0.00846809        0.00771920        0.00332040
      52         -0.335762        2.000000        0.20674381        0.03965621        0.20710984        0.01787761        0.00271273        0.00894456        0.01016477        0.00377966        0.00644040
      53         -0.335350        2.000000        0.17110212        0.02111389        0.22079974        0.01780178        0.00283016        0.00416814        0.01001355        0.00366172        0.00377080
      54         -0.331922        2.000000        0.20203732        0.02262930        0.19170517        0.03441578        0.00601757        0.00460231        0.01162797        0.00753611        0.00388160
      55         -0.330685        2.000000        0.20767492        0.01707664        0.17867980        0.04429002        0.00682353        0.00397357        0.01184907        0.00842348        0.00268553
      56         -0.328267        2.000000        0.20564926        0.03812636        0.17730028        0.02073243        0.00245389        0.00794700        0.01265542        0.00399391        0.00612013
      57         -0.327247        2.000000        0.12600700        0.01635552        0.12670925        0.01941785        0.00378750        0.00284744        0.00838674        0.00389698        0.00271403
      58         -0.322066        2.000000        0.08115688        0.01355049        0.08109639        0.01029775        0.00135260        0.00219814        0.00415122        0.00126124        0.00206553
      59         -0.320178        2.000000        0.12054308        0.01652532        0.08433106        0.02260155        0.00376365        0.00280228        0.00722105        0.00379275        0.00282993
      60         -0.318672        2.000000        0.08782869        0.01531311        0.06980491        0.00987663        0.00150945        0.00325302        0.00437674        0.00214723        0.00243642
      61         -0.317505        2.000000        0.05181990        0.00560312        0.03776667        0.01210582        0.00177014        0.00105176        0.00287185        0.00145031        0.00082027
      62         -0.316545        2.000000        0.10450081        0.01126270        0.08873285        0.01933047        0.00330931        0.00196002        0.00590809        0.00340672        0.00193357
      63         -0.314337        2.000000        0.05526195        0.01494629        0.03410150        0.00396240        0.00057735        0.00189129        0.00332182        0.00089425        0.00229122
      64         -0.311352        2.000000        0.07659333        0.00384760        0.12063126        0.00539123        0.00078066        0.00086655        0.00423916        0.00131431        0.00042818
      65         -0.244987        2.000000        0.00094626        0.00198570        0.00457878        0.00240289        0.00012546        0.00014248        0.00040527        0.00031696        0.00013035
      66         -0.242514        2.000000        0.00274428        0.01043965        0.02306189        0.01368444        0.00029202        0.00050228        0.00123458        0.00039880        0.00064956
      67         -0.239071        2.000000        0.00310033        0.00991323        0.03259157        0.01391379        0.00056334        0.00087343        0.00230922        0.00041511        0.00083164
      68         -0.237314        2.000000        0.00714601        0.02591107        0.09178806        0.05485609        0.00224395        0.00095178        0.00411185        0.00090488        0.00278432
      69         -0.235123        2.000000        0.00812185        0.10149674        0.18089990        0.06544327        0.00378558        0.00086126        0.00627814        0.00073050        0.00133231
      70         -0.234267        2.000000        0.00526228        0.04946483        0.08252479        0.04414929        0.00140756        0.00081334        0.00240809        0.00050891        0.00211087
      71         -0.232707        2.000000        0.00651358        0.04418165        0.12918436        0.07337296        0.00085269        0.00065850        0.00424888        0.00081179        0.00211968
      72         -0.230836        2.000000        0.00691077        0.05932075        0.19011208        0.10977820        0.00136812        0.00118832        0.00657517        0.00115763        0.00261188
      73         -0.229323        2.000000        0.00413022        0.02546453        0.14710528        0.06976801        0.00174854        0.00072022        0.00643313        0.00115048        0.00053785
      74         -0.228885        2.000000        0.00364789        0.09465284        0.15722020        0.02646325        0.00215273        0.00103740        0.00558723        0.00058911        0.00072476
      75         -0.227872        2.000000        0.00286481        0.02567526        0.08204211        0.04031151        0.00095040        0.00065130        0.00298522        0.00097716        0.00102560
      76         -0.226922        2.000000        0.00436607        0.04036749        0.07698705        0.02622725        0.00088951        0.00073707        0.00250586        0.00026672        0.00201760
      77         -0.224937        2.000000        0.00312860        0.02984024        0.08608939        0.03083644        0.00104244        0.00033134        0.00454902        0.00069991        0.00145352
      78         -0.222229        2.000000        0.00553575        0.02570792        0.05908395        0.01124405        0.00166725        0.00064465        0.00459164        0.00031741        0.00136257
      79         -0.222130        2.000000        0.00479128        0.04182281        0.12620065        0.05312485        0.00119072        0.00086719        0.00597542        0.00114131        0.00304003
      80         -0.221523        2.000000        0.00635078        0.03771187        0.11539589        0.04004353        0.00282641        0.00079091        0.00753238        0.00093713        0.00281686
      81         -0.220850        2.000000        0.00754619        0.04875632        0.13980065        0.05242663        0.00269491        0.00143244        0.01052027        0.00150148        0.00237959
      82         -0.219565        2.000000        0.00628549        0.03496614        0.08131288        0.02403311        0.00201786        0.00083527        0.00439676        0.00043062        0.00268149
      83         -0.219065        2.000000        0.00390911        0.01974183        0.06143574        0.01799214        0.00145402        0.00079243        0.00312123        0.00058162        0.00114541
      84         -0.218358        2.000000        0.00865723        0.08692741        0.20531776        0.08169038        0.00447165        0.00187207        0.00938942        0.00160455        0.00610818
      85         -0.217963        2.000000        0.01190109        0.06139846        0.16581187        0.07171692        0.00576603        0.00240086        0.01030210        0.00122329        0.00251167
      86         -0.216723        2.000000        0.00760669        0.04624823        0.13346417        0.03826102        0.00287527        0.00089365        0.00724700        0.00094506        0.00355039
      87         -0.215985        2.000000        0.00538471        0.04733097        0.13645512        0.03312220        0.00268650        0.00076977        0.00662893        0.00116572        0.00246089
      88         -0.215704        2.000000        0.00892967        0.08553468        0.15288336        0.03337387        0.00329972        0.00081734        0.00756062        0.00138922        0.00462202
      89         -0.215416        2.000000        0.00506197        0.05783166        0.10357404        0.03851464        0.00304778        0.00088599        0.00853925        0.00152896        0.00170986
      90         -0.214084        2.000000        0.00927067        0.04270423        0.11185736        0.05233169        0.00195588        0.00163991        0.01474155        0.00118587        0.00275720
      91         -0.213191        2.000000        0.01252628        0.05317113        0.18528989        0.10127480        0.00622450        0.00177659        0.00938861        0.00237093        0.00292252
      92         -0.212940        2.000000        0.01348350        0.05726366        0.22419526        0.09568912        0.00564876        0.00258561        0.00813806        0.00121341        0.00690017
      93         -0.212268        2.000000        0.00931983        0.06920514        0.14632385        0.05124848        0.00488565        0.00173228        0.00891185        0.00222461        0.00294830
      94         -0.211154        2.000000        0.00708369        0.03853460        0.10893701        0.02365330        0.00242846        0.00161050        0.00848007        0.00121977        0.00284998
      95         -0.210595        2.000000        0.00312529        0.01920940        0.07083362        0.02017161        0.00168162        0.00071628        0.00596027        0.00081799        0.00105717
      96         -0.210222        2.000000        0.00641804        0.05845233        0.15519281        0.04162916        0.00260379        0.00225710        0.01042059        0.00159664        0.00453514
      97         -0.210060        2.000000        0.00511804        0.06452209        0.20635422        0.06900056        0.00385360        0.00302643        0.01420403        0.00270661        0.00216132
      98         -0.209188        2.000000        0.01054921        0.03472618        0.12900101        0.04692954        0.00219654        0.00128307        0.02092633        0.00172227        0.00249621
      99         -0.207737        2.000000        0.00889255        0.05612772        0.19163178        0.06967580        0.00553047        0.00303191        0.01832384        0.00203984        0.00269774
     100         -0.206875        2.000000        0.01714201        0.10243090        0.17699934        0.14741588        0.00774797        0.00286535        0.01133212        0.00329975        0.00748449
     101         -0.206795        2.000000        0.00768310        0.06573508        0.17524228        0.08421713        0.00262049        0.00347692        0.01807121        0.00375350        0.00306599
     102         -0.205682        2.000000        0.02242910        0.14998720        0.15762612        0.13941978        0.00894126        0.00302456        0.01649758        0.00494487        0.00731045
     103         -0.204717        2.000000        0.00858876        0.06913671        0.17460272        0.09340554        0.00350926        0.00340070        0.01748104        0.00176413        0.00515415
     104         -0.203769        2.000000        0.01420709        0.07222623        0.11271492        0.10015780        0.00345590        0.00366690        0.01515552        0.00173198        0.00568971
     105         -0.203013        2.000000        0.01611071        0.05202715        0.15138476        0.08474723        0.00596850        0.00284339        0.01205057        0.00274570        0.00441224
     106         -0.202455        2.000000        0.01185570        0.06519327        0.11491033        0.11057990        0.00473404        0.00243653        0.01780665        0.00338924        0.00364479
     107         -0.201674        2.000000        0.00548592        0.09806745        0.10447774        0.07354198        0.00372089        0.00359116        0.01309647        0.00155048        0.00283975
     108         -0.200505        2.000000        0.00770361        0.03520926        0.13120857        0.07736818        0.00299706        0.00186890        0.01630142        0.00211087        0.00439903
     109         -0.199291        2.000000        0.01413011        0.08132877        0.15467358        0.08072450        0.00689611        0.00320286        0.01807882        0.00252474        0.00482782
     110         -0.199114        2.000000        0.01825659        0.08058977        0.13425617        0.07735348        0.00910602        0.00150669        0.01567924        0.00249746        0.00444794
     111         -0.198544        2.000000        0.01255228        0.07135496        0.10552531        0.09099077        0.00582198        0.00324027        0.01207307        0.00135990        0.00442418
     112         -0.197813        2.000000        0.01965075        0.12289866        0.21888262        0.09484426        0.00746836        0.00219354        0.02235110        0.00480066        0.00854556
     113         -0.197707        2.000000        0.02599650        0.15136414        0.25223738        0.11569579        0.00547807        0.00371229        0.02706928        0.00408919        0.01412295
     114         -0.196350        2.000000        0.02271587        0.11016284        0.17545070        0.10216969        0.00866960        0.00382366        0.01786654        0.00278551        0.00639019
     115         -0.195518        2.000000        0.01616187        0.09789445        0.12945264        0.08735947        0.00613364        0.00181752        0.01588038        0.00157413        0.00676296
     116         -0.194407        2.000000        0.02665796        0.12820406        0.25623893        0.09662742        0.00810978        0.00423023        0.02528408        0.00530144        0.00892849
     117         -0.194051        2.000000        0.01640036        0.07632999        0.11923358        0.07198668        0.00460758        0.00174736        0.01367574        0.00258941        0.00704687
     118         -0.193002        2.000000        0.02252856        0.16208828        0.21865252        0.09525339        0.01185719        0.00316424        0.02439213        0.00377038        0.00859482
     119         -0.192318        2.000000        0.01021164        0.08197323        0.07601163        0.06560204        0.00605421        0.00198037        0.00966101        0.00168095        0.00320567
     120         -0.191781        2.000000        0.03087529        0.15226365        0.20598622        0.12062717        0.01152380        0.00326031        0.01539809        0.00429441        0.01240031
     121         -0.190833        2.000000        0.01256816        0.08334920        0.14159278        0.08220038        0.00516737        0.00245273        0.01841565        0.00341004        0.00592466
     122         -0.190033        2.000000        0.00958869        0.12411774        0.15845196        0.15918111        0.00558120        0.00711846        0.01698413        0.00461886        0.01121261
     123         -0.188438        2.000000        0.00561076        0.03795769        0.19640818        0.05817927        0.00318573        0.00426446        0.02404457        0.00396871        0.00300792
     124         -0.188038        2.000000        0.01385547        0.12681763        0.25311796        0.11134379        0.01056298        0.00548765        0.02127678        0.00662585        0.00477306
     125         -0.187230        2.000000        0.02709889        0.12733910        0.19553046        0.17284786        0.01196710        0.00266893        0.01580866        0.00528896        0.01119803
     126         -0.184821        2.000000        0.01249819        0.16540524        0.20764435        0.17058508        0.01098605        0.00702901        0.02906970        0.00536606        0.01050175
     127         -0.183544        2.000000        0.02816729        0.09351725        0.24449771        0.15535875        0.01450537        0.00497501        0.03437219        0.00396034        0.01096319
     128         -0.182295        2.000000        0.00702500        0.09637270        0.20223484        0.08237641        0.00369898        0.00290684        0.03898993        0.00559691        0.00561139
     129         -0.180391        2.000000        0.01718643        0.12354488        0.21327862        0.17911010        0.01096089        0.00610886        0.02614967        0.00759509        0.01297105
     130         -0.177837        2.000000        0.01441522        0.09736969        0.25310964        0.09475204        0.00497429        0.00408417        0.04909024        0.00500620        0.01078376
     131         -0.176705        2.000000        0.01005587        0.12138635        0.26046948        0.08879692        0.00797146        0.00654973        0.03566038        0.00707132        0.00885836
     132         -0.176024        2.000000        0.01342576        0.12755959        0.21746111        0.08437190        0.00650641        0.00540891        0.03714855        0.00723181        0.01102105
     133         -0.173403        2.000000        0.02432734        0.19188140        0.24587247        0.13876827        0.01263844        0.00801342        0.02568467        0.01064944        0.01855490
     134         -0.172115        2.000000        0.01689811        0.16907269        0.23354904        0.22760610        0.01451253        0.00999263        0.02371282        0.01004013        0.01455993
     135         -0.171238        2.000000        0.00944506        0.11686915        0.25903776        0.08620571        0.00674679        0.00614499        0.04311467        0.00789931        0.00894114
     136         -0.169236        2.000000        0.01590299        0.06285187        0.24156337        0.06203278        0.00847287        0.00659790        0.05565546        0.00325601        0.00404667
     137         -0.169029        2.000000        0.02132423        0.19072527        0.23634636        0.07915349        0.01674837        0.00526626        0.02701762        0.00932842        0.00834421
     138         -0.167839        2.000000        0.01647649        0.12480640        0.21181203        0.12440923        0.01308175        0.00936025        0.03026216        0.00681147        0.00796131
     139         -0.166991        2.000000        0.00408048        0.04100393        0.05432319        0.03037929        0.00297496        0.00294916        0.00754140        0.00182636        0.00279344
     140         -0.165832        2.000000        0.00406499        0.01897582        0.04842914        0.01916660        0.00237589        0.00104119        0.00769266        0.00093512        0.00202862
     141         -0.162977        2.000000        0.00048827        0.00312747        0.00796691        0.00269010        0.00027543        0.00019632        0.00128550        0.00013908        0.00030035
     142         -0.153491        2.000000        0.00008256        0.00073762        0.00224775        0.00065644        0.00004644        0.00004856        0.00032830        0.00003512        0.00007646
     143         -0.148465        2.000000        0.00004936        0.00026859        0.00107452        0.00104120        0.00004048        0.00003521        0.00007221        0.00005823        0.00003117
     144         -0.146484        2.000000        0.00011244        0.00123062        0.00116225        0.00166832        0.00006988        0.00007493        0.00016009        0.00004113        0.00006748