# Projected DOS for atomic kind Si at iteration step i = 0, E(Fermi) =    -0.079565 a.u.
#     MO Eigenvalue [a.u.]      Occupation                 s                py                pz                px               d-2               d-1                d0               d+1               d+2
       1         -0.501251        2.000000        0.00800137        0.00026679        0.00164637        0.00016543        0.00001857        0.00003528        0.00011597        0.00002512        0.00001398
       2         -0.483653        2.000000        0.62134480        0.00295219        0.02539477        0.00237556        0.00077921        0.00042132        0.02934057        0.00023514        0.00068483
       3         -0.482794        2.000000        0.03628448        0.00179512        0.00256186        0.00260123        0.00027594        0.00012317        0.00193145        0.00017636        0.00012547
       4         -0.480732        2.000000        0.00725225        0.00186754        0.00126126        0.00086713        0.00005536        0.00014173        0.00033777        0.00006437        0.00013666
       5         -0.476352        2.000000        0.00692479        0.00119111        0.00084784        0.00218581        0.00015190        0.00008795        0.00017462        0.00013382        0.00011562
       6         -0.475104        2.000000        0.00815741        0.00258085        0.00089179        0.00184828        0.00017147        0.00012249        0.00015229        0.00010215        0.00021768
       7         -0.472746        2.000000        0.00857510        0.00354054        0.00079396        0.00159000        0.00015247        0.00018749        0.00010587        0.00008443        0.00027501
       8         -0.468148        2.000000        0.01839683        0.00319331        0.00075444        0.00639989        0.00059012        0.00018194        0.00018364        0.00022107        0.00032531
       9         -0.465952        2.000000        0.49111811        0.13551380        0.01430232        0.08351943        0.01059095        0.00691959        0.00811748        0.00382209        0.01698262
      10         -0.462379        2.000000        0.49415015        0.13329493        0.00942006        0.09199584        0.01146971        0.00614335        0.00905447        0.00461064        0.01559937
      11         -0.460884        2.000000        0.49641409        0.06546228        0.01218865        0.15944294        0.01876589        0.00294909        0.00759653        0.00832948        0.00762076
      12         -0.459799        2.000000        0.49606096        0.08349543        0.01215655        0.14490550        0.01755056        0.00464034        0.00741280        0.00625876        0.01093855
      13         -0.457220        2.000000        0.49809454        0.09615992        0.01011563        0.13414453        0.01591383        0.00442508        0.00719024        0.00686139        0.01279015
      14         -0.454684        2.000000        0.49838559        0.16215453        0.00842493        0.07285234        0.00905367        0.00819608        0.00710132        0.00333013        0.01953792
      15         -0.440479        2.000000        0.00160198        0.00124110        0.00048805        0.00053975        0.00013393        0.00022220        0.00012988        0.00013265        0.00011957
      16         -0.436430        2.000000        0.00222657        0.00071648        0.00048945        0.00172643        0.00016517        0.00014756        0.00015608        0.00021429        0.00021298
      17         -0.435553        2.000000        0.00165698        0.00058522        0.00037390        0.00143793        0.00013946        0.00013287        0.00012562        0.00022256        0.00014919
      18         -0.432662        2.000000        0.00378346        0.00201196        0.00035740        0.00163604        0.00030286        0.00019166        0.00014665        0.00017925        0.00029168
      19         -0.431075        2.000000        0.00520125        0.00286970        0.00040023        0.00202094        0.00046737        0.00023236        0.00016182        0.00023399        0.00038753
      20         -0.429835        2.000000        0.00353626        0.00157864        0.00064371        0.00178371        0.00033339        0.00033008        0.00018628        0.00028383        0.00032506
      21         -0.429181        2.000000        0.00322823        0.00154830        0.00040687        0.00186987        0.00027457        0.00022850        0.00016526        0.00023549        0.00028528
      22         -0.425169        2.000000        0.06712824        0.02603433        0.00056261        0.03024622        0.00590166        0.00147734        0.00029019        0.00232723        0.00558342
      23         -0.423894        2.000000        0.33562932        0.12246372        0.00189065        0.14878346        0.02965933        0.00886973        0.00066872        0.01099902        0.02794484
      24         -0.421266        2.000000        0.35890015        0.15302833        0.00113896        0.14404015        0.02893757        0.01188041        0.00068500        0.01145053        0.03028127
      25         -0.420734        2.000000        0.04736023        0.01607252        0.00067304        0.02338143        0.00353268        0.00128354        0.00017237        0.00167902        0.00455190
      26         -0.419163        2.000000        0.37692611        0.16844691        0.00185611        0.13093941        0.02985540        0.01291570        0.00073418        0.00900494        0.03884519
      27         -0.417737        2.000000        0.40328519        0.20437049        0.00144228        0.09870102        0.02885150        0.01655797        0.00064054        0.00755765        0.05204258
      28         -0.417358        2.000000        0.39842323        0.17306459        0.00149951        0.13435248        0.03678224        0.01402040        0.00123758        0.00926307        0.04099314
      29         -0.416074        2.000000        0.40443769        0.07634198        0.00078762        0.21362638        0.06620317        0.00614168        0.00102110        0.01763680        0.03043804
      30         -0.413963        2.000000        0.40142741        0.12395249        0.00123015        0.18180510        0.04716563        0.00887883        0.00124938        0.01479811        0.03266593
      31         -0.413046        2.000000        0.40927672        0.19098980        0.00112802        0.08985279        0.02212923        0.01705841        0.00116931        0.00575662        0.07661028
      32         -0.411567        2.000000        0.40609101        0.08287711        0.00192009        0.19141605        0.07230572        0.00582874        0.00116348        0.01807375        0.03288879
      33         -0.377601        2.000000        0.00563073        0.00251052        0.00212192        0.00630903        0.00022160        0.00022032        0.00052181        0.00054668        0.00005508
      34         -0.375300        2.000000        0.00574773        0.00287172        0.00249698        0.00662984        0.00013338        0.00040726        0.00065957        0.00054516        0.00009309
      35         -0.373071        2.000000        0.01312461        0.01714277        0.00614598        0.00130327        0.00025995        0.00160583        0.00134240        0.00039548        0.00060793
      36         -0.366392        2.000000        0.00966636        0.00579958        0.00434272        0.00614951        0.00069350        0.00106496        0.00089876        0.00110611        0.00040999
      37         -0.364410        2.000000        0.03819481        0.01508292        0.01074316        0.03376323        0.00226414        0.00217607        0.00259787        0.00407580        0.00069441
      38         -0.363557        2.000000        0.27116202        0.12016869        0.04107498        0.22951780        0.00985398        0.01554977        0.01179444        0.02319319        0.00503277
      39         -0.362755        2.000000        0.01766791        0.00884116        0.00581902        0.01126233        0.00083221        0.00176893        0.00137181        0.00154612        0.00105763
      40         -0.361536        2.000000        0.07138292        0.05160168        0.01362545        0.04087665        0.00242127        0.00606806        0.00386116        0.00446202        0.00239002
      41         -0.361375        2.000000        0.14114373        0.16359671        0.02343473        0.02312294        0.00183312        0.01636275        0.00775268        0.00363198        0.00587129
      42         -0.360687        2.000000        0.17928823        0.07675938        0.02784383        0.16169988        0.00564260        0.00952903        0.00818842        0.01750705        0.00317130
      43         -0.359931        2.000000        0.13292055        0.11718469        0.01877036        0.06195646        0.00375274        0.01248232        0.00650881        0.00631256        0.00505066
      44         -0.358357        2.000000        0.03112497        0.01321674        0.00803987        0.01949428        0.00183481        0.00231937        0.00192996        0.00332039        0.00169051
      45         -0.354492        2.000000        0.28727375        0.11287152        0.05944799        0.15130246        0.03387229        0.01601025        0.01724982        0.02403355        0.01780895
      46         -0.352624        2.000000        0.28911302        0.15437349        0.06670387        0.10143490        0.01778197        0.02487147        0.01686922        0.01664542        0.03294718
      47         -0.351445        2.000000        0.29385756        0.13422859        0.07322551        0.13145676        0.02385780        0.02032173        0.01774786        0.02265027        0.02878813
      48         -0.350956        2.000000        0.29654896        0.12464889        0.06320410        0.14718339        0.02905638        0.01965194        0.01977391        0.02114323        0.02453482
      49         -0.348668        2.000000        0.30182295        0.14281761        0.05887121        0.13796989        0.02772496        0.01715497        0.02198794        0.01912697        0.03063056
      50         -0.346756        2.000000        0.29727432        0.13476610        0.05911949        0.14051095        0.02994122        0.01772593        0.02240065        0.01788742        0.02857017
      51         -0.343833        2.000000        0.04768531        0.01517016        0.06970663        0.01920885        0.00408337        0.00300559        0.00677407        0.00403791        0.00298586
      52         -0.337042        2.000000        0.03644938        0.00986258        0.07106444        0.00574759        0.00133019        0.00584509        0.00585555        0.00265369        0.00245729
      53         -0.336497        2.000000        0.02179759        0.00317284        0.05719821        0.00497953        0.00135117        0.00139841        0.00433203        0.00309918        0.00073593
      54         -0.333356        2.000000        0.02398495        0.00398577        0.06275274        0.00478499        0.00140756        0.00222132        0.00494878        0.00262108        0.00122036
      55         -0.331311        2.000000        0.07994263        0.01268629        0.19202720        0.00995802        0.00369616        0.00475398        0.00898544        0.00889155        0.00301862
      56         -0.329853        2.000000        0.08207210        0.01915874        0.15783007        0.00952186        0.00223794        0.01102613        0.00993948        0.00395232        0.00554564
      57         -0.324867        2.000000        0.06476528        0.01111055        0.12336354        0.01065157        0.00290743        0.00585066        0.00859769        0.00672643        0.00358341
      58         -0.321911        2.000000        0.16395374        0.03138040        0.23853473        0.03539639        0.01060984        0.01152111        0.01613027        0.01463743        0.00663939
      59         -0.319668        2.000000        0.14810199        0.04035294        0.19861492        0.01822912        0.00511634        0.01472410        0.01548612        0.00676632        0.01071871
      60         -0.319162        2.000000        0.17260600        0.02629886        0.25037444        0.04767180        0.01134761        0.00813593        0.01845965        0.02090780        0.00685064
      61         -0.317056        2.000000        0.13214502        0.02282714        0.18661608        0.03274363        0.00831389        0.00949230        0.01396574        0.01011635        0.00667556
      62         -0.316969        2.000000        0.16819629        0.03438632        0.24518402        0.03078327        0.00802281        0.01237294        0.01676681        0.01301383        0.00911459
      63         -0.314012        2.000000        0.15561626        0.03223857        0.22749521        0.03089439        0.00704815        0.01449303        0.01724406        0.00967073        0.00911995
      64         -0.311564        2.000000        0.09019316        0.00741935        0.26622001        0.00700619        0.00097456        0.00239620        0.00733143        0.00141505        0.00155542
      65         -0.242657        2.000000        0.00532090        0.10037155        0.35298640        0.16591834        0.00249483        0.00399889        0.01555992        0.00497123        0.00366787
      66         -0.241633        2.000000        0.00393610        0.09982327        0.38016113        0.19319230        0.00320860        0.00356542        0.01798679        0.00432455        0.00333062
      67         -0.239094        2.000000        0.00503367        0.21484505        0.35353965        0.04958405        0.00402215        0.00463847        0.01778818        0.00197338        0.00229275
      68         -0.236318        2.000000        0.01168517        0.06703628        0.22639606        0.10202554        0.00725913        0.00726006        0.00808227        0.00352925        0.01344201
      69         -0.235573        2.000000        0.00853564        0.06103599        0.20222908        0.06719854        0.00862957        0.00432273        0.00906448        0.00300769        0.00616524
      70         -0.233292        2.000000        0.00489671        0.04825558        0.18057329        0.07460924        0.00609392        0.00197037        0.00883223        0.00292644        0.00412439
      71         -0.232390        2.000000        0.01324871        0.06570007        0.25280394        0.12788890        0.01256626        0.00421439        0.01095007        0.00424366        0.01096370
      72         -0.230422        2.000000        0.01343592        0.10618263        0.26483891        0.12784823        0.00764297        0.00881199        0.01088790        0.00236851        0.01785806
      73         -0.228593        2.000000        0.01182090        0.08079413        0.27157325        0.11449047        0.01258405        0.00376034        0.00816649        0.00483684        0.00972532
      74         -0.227855        2.000000        0.01049039        0.09350649        0.23676090        0.08741452        0.00810864        0.00494948        0.01200499        0.00285708        0.01291195
      75         -0.226246        2.000000        0.00886692        0.05487176        0.20661929        0.12940408        0.00867543        0.00477294        0.01272579        0.00184933        0.01052028
      76         -0.225979        2.000000        0.01285033        0.10637376        0.28440361        0.17081532        0.01695056        0.00931896        0.01949400        0.00272687        0.00898624
      77         -0.224346        2.000000        0.01433295        0.12787349        0.24152438        0.16776520        0.01752781        0.00691560        0.03644182        0.00413007        0.00586170
      78         -0.221976        2.000000        0.01345866        0.17398255        0.12791149        0.18829979        0.01329851        0.00773506        0.02181673        0.00354272        0.01512492
      79         -0.221299        2.000000        0.01068446        0.15327474        0.19032322        0.12428423        0.00874512        0.00409874        0.03212944        0.00800236        0.01039779
      80         -0.220625        2.000000        0.00485455        0.13069301        0.16219675        0.03323212        0.00522177        0.00373909        0.02232960        0.00695508        0.00568597
      81         -0.219782        2.000000        0.01139692        0.08873602        0.13455968        0.09971086        0.00915533        0.00581521        0.02614915        0.00273765        0.00611483
      82         -0.218876        2.000000        0.01947840        0.09423416        0.19072415        0.11731757        0.01454632        0.00227524        0.03363197        0.00396796        0.00954801
      83         -0.218540        2.000000        0.01893416        0.17133060        0.21119867        0.16864929        0.01450722        0.00875153        0.03835662        0.00976577        0.01147139
      84         -0.218013        2.000000        0.01144163        0.05344702        0.12275341        0.06168498        0.00853561        0.00562272        0.02262006        0.00289200        0.00519053
      85         -0.217811        2.000000        0.01188355        0.06221149        0.14867967        0.10558947        0.00898234        0.00470631        0.02521680        0.00282577        0.00798136
      86         -0.217249        2.000000        0.01429027        0.14039329        0.19100665        0.14858601        0.01170123        0.00854081        0.04523876        0.00811862        0.01069864
      87         -0.215891        2.000000        0.01391629        0.16166810        0.10673455        0.13852508        0.01339530        0.00325575        0.02193969        0.00666170        0.01312411
      88         -0.215542        2.000000        0.01695344        0.11576834        0.20337203        0.09863498        0.01465952        0.00455396        0.04835616        0.00618349        0.00875632
      89         -0.214650        2.000000        0.00970745        0.14349197        0.21687230        0.12951029        0.00989401        0.00721106        0.03921911        0.01222166        0.00925976
      90         -0.213925        2.000000        0.03095094        0.20693403        0.19082661        0.08908046        0.01436563        0.00372840        0.01830361        0.00250430        0.02717357
      91         -0.213373        2.000000        0.02108434        0.13747211        0.17940044        0.07275471        0.00797244        0.00537702        0.03961758        0.00417418        0.01672155
      92         -0.212640        2.000000        0.01909439        0.09257866        0.17629354        0.13950630        0.01329625        0.00717326        0.03244578        0.00542445        0.01233043
      93         -0.211508        2.000000        0.01014308        0.06210303        0.17446623        0.04576617        0.00530903        0.00595794        0.05320196        0.00366394        0.00975181
      94         -0.211198        2.000000        0.01459968        0.12533574        0.13827890        0.11455435        0.01508851        0.00628856        0.02466821        0.00520939        0.00947272
      95         -0.210668        2.000000        0.01377278        0.08364161        0.16666677        0.12321789        0.01784412        0.00560065        0.03013629        0.00526366        0.00868738
      96         -0.209866        2.000000        0.01854874        0.10295766        0.18975541        0.11941061        0.01351300        0.00532195        0.03592493        0.01065750        0.01586717
      97         -0.209338        2.000000        0.01560723        0.11524243        0.13752559        0.07610984        0.01249001        0.00254421        0.01852576        0.00421883        0.01361497
      98         -0.208565        2.000000        0.00936400        0.10092434        0.16977810        0.11443181        0.01015731        0.00864140        0.03904389        0.00459355        0.01384312
      99         -0.208037        2.000000        0.01984137        0.11491280        0.14717317        0.08807182        0.01257939        0.00385661        0.03281559        0.00450506        0.01203391
     100         -0.207022        2.000000        0.02139836        0.10247599        0.17513135        0.12370633        0.01584309        0.00575649        0.02197239        0.00212647        0.01960721
     101         -0.206754        2.000000        0.01167458        0.07877924        0.13668887        0.05068276        0.00693858        0.00500858        0.02657039        0.00449091        0.01257178
     102         -0.205257        2.000000        0.01657521        0.08395084        0.14554323        0.05393868        0.00604055        0.00403796        0.03228079        0.00292464        0.01742699
     103         -0.204786        2.000000        0.00944351        0.08260312        0.18396444        0.07376280        0.00900982        0.00537694        0.05498155        0.00586392        0.01096826
     104         -0.203622        2.000000        0.00622452        0.06013589        0.12375409        0.07610414        0.00771516        0.00471894        0.03294037        0.00359632        0.00844800
     105         -0.203278        2.000000        0.01228565        0.04636135        0.17996191        0.09554549        0.01096895        0.00680959        0.04568178        0.00328106        0.01091863
     106         -0.202443        2.000000        0.01004047        0.04744942        0.14210299        0.05430532        0.00776188        0.00317669        0.04529537        0.00409293        0.00861094
     107         -0.200977        2.000000        0.00889409        0.05124986        0.17621845        0.08104172        0.00844830        0.00871869        0.03745036        0.00565015        0.00910135
     108         -0.200551        2.000000        0.01176897        0.09468063        0.14105024        0.11821864        0.01346427        0.00652111        0.02786070        0.00438486        0.01555872
     109         -0.200098        2.000000        0.00536582        0.06127756        0.12017189        0.03663266        0.00629827        0.00735313        0.03031485        0.00306851        0.00575428
     110         -0.199292        2.000000        0.00417178        0.04539960        0.16135778        0.06395243        0.00481403        0.00642667        0.05747971        0.00356502        0.00717268
     111         -0.199071        2.000000        0.00719449        0.06793752        0.13161583        0.03400785        0.00895365        0.00438314        0.03424188        0.00417523        0.00670157
     112         -0.198266        2.000000        0.00958258        0.06582969        0.15566156        0.05866368        0.00980204        0.00808824        0.03237761        0.00388051        0.01035433
     113         -0.197273        2.000000        0.00798241        0.09296455        0.20243764        0.09410026        0.01479157        0.00863697        0.04699088        0.00527609        0.01260547
     114         -0.196705        2.000000        0.00539941        0.04875753        0.07890503        0.05268189        0.00712385        0.00357787        0.01636028        0.00299740        0.00624837
     115         -0.196185        2.000000        0.00677720        0.07098055        0.15863484        0.09702017        0.01316300        0.00761102        0.02574826        0.00670352        0.01064138
     116         -0.195372        2.000000        0.00484492        0.03265416        0.08117349        0.04066400        0.00449144        0.00347132        0.02544893        0.00326862        0.00543361
     117         -0.194557        2.000000        0.00553015        0.08220770        0.11721935        0.02517493        0.00837498        0.00380899        0.02853264        0.00610570        0.00606953
     118         -0.193743        2.000000        0.00899359        0.04448533        0.19778738        0.07559901        0.00880253        0.00820345        0.06179600        0.00576838        0.00696828
     119         -0.192762        2.000000        0.00676451        0.09387766        0.13557594        0.02676187        0.01297803        0.00421966        0.03204076        0.00765130        0.00609560
     120         -0.192290        2.000000        0.00498632        0.05724822        0.16446219        0.06707095        0.00984643        0.00857803        0.04063600        0.00626936        0.00696489
     121         -0.190912        2.000000        0.01089340        0.06133153        0.18799519        0.09899740        0.01122749        0.00901463        0.04518513        0.00706479        0.01247691
     122         -0.190089        2.000000        0.00581029        0.09351000        0.14797009        0.05638663        0.01208007        0.00640898        0.03202521        0.00606917        0.01007054
     123         -0.189926        2.000000        0.00327994        0.04505361        0.09002611        0.03138473        0.00829938        0.00369104        0.01986214        0.00461364        0.00273854
     124         -0.188838        2.000000        0.00509577        0.04481952        0.11643186        0.02411096        0.00589180        0.00419520        0.03008819        0.00314300        0.00623148
     125         -0.187349        2.000000        0.00308890        0.01721759        0.07760750        0.02183142        0.00298867        0.00366521        0.02274193        0.00291993        0.00296650
     126         -0.185488        2.000000        0.00401016        0.06718127        0.11432704        0.02700460        0.01042333        0.00480651        0.02670936        0.00587424        0.00259098
     127         -0.183789        2.000000        0.00349963        0.01742065        0.07930648        0.03525577        0.00513174        0.00367754        0.01767919        0.00281572        0.00344320
     128         -0.182665        2.000000        0.00311296        0.03018592        0.07928115        0.02059291        0.00442292        0.00257621        0.02211310        0.00322882        0.00369994
     129         -0.181089        2.000000        0.00232148        0.01840684        0.07114212        0.03263347        0.00466226        0.00339707        0.01772835        0.00288834        0.00330323
     130         -0.178329        2.000000        0.00272318        0.01456155        0.07821724        0.03160025        0.00481479        0.00322832        0.02235708        0.00242844        0.00200264
     131         -0.177198        2.000000        0.00248191        0.02254480        0.05170558        0.01248763        0.00217532        0.00212721        0.01340678        0.00187660        0.00311971
     132         -0.175776        2.000000        0.00367481        0.01550420        0.09272731        0.01388830        0.00261033        0.00381272        0.02949440        0.00196199        0.00401985
     133         -0.174034        2.000000        0.00093035        0.00948063        0.04239265        0.00843477        0.00147106        0.00131997        0.01390895        0.00169317        0.00105884
     134         -0.172663        2.000000        0.00121167        0.01369328        0.03891023        0.00952927        0.00212997        0.00177360        0.00912223        0.00204311        0.00094372
     135         -0.172134        2.000000        0.00052526        0.00759736        0.02381355        0.00659308        0.00115038        0.00148614        0.00513826        0.00104634        0.00059880
     136         -0.169400        2.000000        0.00185963        0.02633501        0.03100744        0.01152621        0.00062941        0.00145144        0.01063542        0.00094821        0.00205794
     137         -0.168204        2.000000        0.00085309        0.02327382        0.03000469        0.08498051        0.00232604        0.00160525        0.00944498        0.00324064        0.00090652
     138         -0.167535        2.000000        0.00084561        0.02943549        0.03704937        0.03423199        0.00206103        0.00221400        0.00844371        0.00215808        0.00179940
     139         -0.164925        2.000000        0.00197506        0.47283380        0.02693924        0.34970313        0.01021253        0.01607129        0.00389155        0.01451896        0.00944508
     140         -0.163389        2.000000        0.00188026        0.13936626        0.03390189        0.60236684        0.01032413        0.00704654        0.00838501        0.02348265        0.00653699
     141         -0.161119        2.000000        0.00229616        0.62719281        0.02308050        0.21218028        0.00562513        0.02149583        0.00393673        0.01197092        0.01156412
     142         -0.150517        2.000000        0.00167814        0.07243780        0.01106868        0.75128321        0.07768530        0.00319895        0.00181582        0.02646226        0.00919719
     143         -0.146538        2.000000        0.00136708        0.52445543        0.01465237        0.29472086        0.03062176        0.01564857        0.00193486        0.01063733        0.05807854
     144         -0.144147        2.000000        0.00104300        0.43809844        0.01998751        0.36133617        0.03575886        0.01602619        0.00333903        0.01433378        0.04928116