# Projected DOS for atomic kind H at iteration step i = 0, E(Fermi) =    -0.078491 a.u.
#     MO Eigenvalue [a.u.]      Occupation                 s                py                pz                px
       1         -0.500512        2.000000        0.10735617        0.00149197        0.08205042        0.00097893
       2         -0.484888        2.000000        0.14693093        0.00087763        0.11546987        0.00041303
       3         -0.482601        2.000000        0.10118398        0.00544242        0.07363347        0.00773000
       4         -0.479729        2.000000        0.09671734        0.00868753        0.07375363        0.00389275
       5         -0.475871        2.000000        0.10011253        0.00307890        0.07489795        0.00990814
       6         -0.474554        2.000000        0.10477895        0.00578130        0.07280248        0.00739982
       7         -0.472628        2.000000        0.09917034        0.01293966        0.07220730        0.00153794
       8         -0.468314        2.000000        0.11123887        0.00678613        0.07726944        0.00676893
       9         -0.467550        2.000000        0.10233517        0.00556700        0.07747422        0.00853971
      10         -0.462860        2.000000        0.10868872        0.00673972        0.08392045        0.00630759
      11         -0.461973        2.000000        0.10885636        0.00397206        0.08414981        0.00817277
      12         -0.461636        2.000000        0.10637673        0.00534098        0.08058512        0.00776402
      13         -0.458067        2.000000        0.11361163        0.00652040        0.08014582        0.00653526
      14         -0.455378        2.000000        0.11054066        0.01000790        0.07711691        0.00415223
      15         -0.439993        2.000000        0.10474882        0.01051260        0.06186301        0.00571394
      16         -0.436153        2.000000        0.10479954        0.00488975        0.06021887        0.01370984
      17         -0.434408        2.000000        0.10838617        0.00644011        0.05803578        0.01286554
      18         -0.432197        2.000000        0.10900220        0.00994109        0.05955391        0.00728769
      19         -0.430812        2.000000        0.11127872        0.00947072        0.05999562        0.00712405
      20         -0.430194        2.000000        0.11458895        0.00936921        0.05897321        0.00724130
      21         -0.428443        2.000000        0.11382229        0.00660999        0.06236218        0.00596171
      22         -0.425707        2.000000        0.10704775        0.00927908        0.05778094        0.00713424
      23         -0.424948        2.000000        0.10818415        0.00753969        0.06166530        0.00652106
      24         -0.422828        2.000000        0.10656795        0.00908636        0.05793421        0.00645866
      25         -0.419816        2.000000        0.11327767        0.00787431        0.05652897        0.00529160
      26         -0.419218        2.000000        0.11086060        0.00620335        0.05385330        0.00936963
      27         -0.418861        2.000000        0.10822062        0.00717915        0.06094352        0.00810408
      28         -0.417207        2.000000        0.11201301        0.00682432        0.05593513        0.00651859
      29         -0.416649        2.000000        0.10708060        0.00524950        0.05503449        0.00787802
      30         -0.414920        2.000000        0.10905573        0.00579031        0.05544623        0.00759171
      31         -0.414522        2.000000        0.11006450        0.00787422        0.05615114        0.00645483
      32         -0.412163        2.000000        0.11415723        0.00672889        0.05457682        0.00663543
      33         -0.377431        2.000000        0.16209464        0.00396890        0.04336246        0.01653891
      34         -0.374369        2.000000        0.16248176        0.00571886        0.04261081        0.01262154
      35         -0.372222        2.000000        0.17313826        0.01811916        0.03749991        0.00260283
      36         -0.367937        2.000000        0.19605217        0.00760483        0.04140549        0.00510499
      37         -0.364888        2.000000        0.16053997        0.00633379        0.03974396        0.00654588
      38         -0.364459        2.000000        0.18280052        0.00756473        0.04055243        0.00832076
      39         -0.362729        2.000000        0.17878405        0.00680591        0.03658612        0.00719249
      40         -0.361877        2.000000        0.16430842        0.00570696        0.03909861        0.00908945
      41         -0.361263        2.000000        0.16543081        0.00609046        0.03977757        0.00594612
      42         -0.360350        2.000000        0.16241847        0.00546663        0.04725197        0.00481731
      43         -0.359198        2.000000        0.18281366        0.00474989        0.04315302        0.00655693
      44         -0.357160        2.000000        0.18470846        0.00709744        0.04123879        0.00508148
      45         -0.355217        2.000000        0.17610807        0.00459808        0.04268420        0.00597712
      46         -0.352575        2.000000        0.17786080        0.00472170        0.03971173        0.00742871
      47         -0.351730        2.000000        0.17474631        0.00635581        0.03921352        0.00496961
      48         -0.351180        2.000000        0.17829604        0.00689192        0.03918009        0.00547466
      49         -0.349087        2.000000        0.17917226        0.00446901        0.03770390        0.00553806
      50         -0.347107        2.000000        0.17827943        0.00565685        0.03754717        0.00391111
      51         -0.342748        2.000000        0.28242288        0.00449982        0.02814146        0.00393385
      52         -0.337141        2.000000        0.31028728        0.00365087        0.02305318        0.00350913
      53         -0.334660        2.000000        0.30638876        0.00474266        0.02144048        0.00182844
      54         -0.332437        2.000000        0.29407224        0.00285850        0.02666514        0.00397817
      55         -0.331067        2.000000        0.29931253        0.00224361        0.02259854        0.00523329
      56         -0.328650        2.000000        0.30286289        0.00534990        0.02132960        0.00215751
      57         -0.326246        2.000000        0.30398092        0.00181429        0.02079719        0.00463481
      58         -0.322385        2.000000        0.28621042        0.00233792        0.04477165        0.00317256
      59         -0.320188        2.000000        0.28152091        0.00220297        0.04731028        0.00239561
      60         -0.318171        2.000000        0.27801933        0.00276768        0.05010385        0.00294330
      61         -0.316835        2.000000        0.28228426        0.00193973        0.04634876        0.00237896
      62         -0.314523        2.000000        0.28288383        0.00201943        0.04235172        0.00188280
      63         -0.314073        2.000000        0.27918728        0.00270362        0.04336901        0.00159979
      64         -0.311259        2.000000        0.30419430        0.00108722        0.05181142        0.00101635
      65         -0.244265        2.000000        0.23320135        0.00821411        0.00145955        0.02401797
      66         -0.241816        2.000000        0.22597179        0.01219268        0.00215129        0.03032559
      67         -0.238432        2.000000        0.22087788        0.03022665        0.00204335        0.00897393
      68         -0.236657        2.000000        0.20527522        0.01585066        0.00474113        0.02869537
      69         -0.235181        2.000000        0.21253076        0.03083100        0.00399328        0.02139118
      70         -0.233895        2.000000        0.20491134        0.01252309        0.00321459        0.02342920
      71         -0.232577        2.000000        0.21607627        0.01455608        0.00296533        0.02587717
      72         -0.230351        2.000000        0.20040109        0.01832735        0.00407256        0.02029545
      73         -0.229137        2.000000        0.21280677        0.01484374        0.00387692        0.02254514
      74         -0.228223        2.000000        0.20661171        0.02059759        0.00414730        0.01424778
      75         -0.227091        2.000000        0.19733242        0.01291764        0.00314532        0.02276841
      76         -0.226465        2.000000        0.18239403        0.01783862        0.00370212        0.02291887
      77         -0.224721        2.000000        0.20907379        0.01436874        0.00404167        0.01613098
      78         -0.221561        2.000000        0.22870392        0.01788717        0.00587322        0.01129548
      79         -0.221026        2.000000        0.13034646        0.01965466        0.00406113        0.02154702
      80         -0.220673        2.000000        0.19355229        0.01646856        0.00376626        0.01467670
      81         -0.220392        2.000000        0.22465159        0.01061373        0.00750851        0.01651011
      82         -0.219735        2.000000        0.19515829        0.02659845        0.00412438        0.01099640
      83         -0.218969        2.000000        0.21363176        0.02047795        0.00378518        0.01235729
      84         -0.218829        2.000000        0.18582289        0.01944860        0.00424577        0.01592304
      85         -0.217338        2.000000        0.16307180        0.01527380        0.00778814        0.02362063
      86         -0.217065        2.000000        0.21753620        0.01345265        0.00503392        0.01939643
      87         -0.216046        2.000000        0.23076420        0.01632568        0.00816353        0.01484069
      88         -0.215545        2.000000        0.12947622        0.02558812        0.00563835        0.01650212
      89         -0.215066        2.000000        0.19577479        0.02387778        0.00429891        0.01267718
      90         -0.213630        2.000000        0.20062483        0.01284096        0.00945747        0.01531002
      91         -0.213423        2.000000        0.21760954        0.01481688        0.00607198        0.01760266
      92         -0.212826        2.000000        0.18173870        0.02025582        0.01148311        0.01673027
      93         -0.211411        2.000000        0.23642543        0.01521305        0.00606613        0.01496878
      94         -0.210776        2.000000        0.19715335        0.01563898        0.00625613        0.01512934
      95         -0.210498        2.000000        0.23907637        0.01356866        0.00948913        0.01498133
      96         -0.210201        2.000000        0.14113726        0.02012291        0.00588441        0.01873627
      97         -0.209952        2.000000        0.24469533        0.01465699        0.00646199        0.01571677
      98         -0.209601        2.000000        0.19755008        0.01945892        0.00825730        0.01189638
      99         -0.208077        2.000000        0.27354885        0.00957778        0.00904249        0.01485172
     100         -0.207134        2.000000        0.24485879        0.01147166        0.00473713        0.01723236
     101         -0.206713        2.000000        0.22099281        0.01267950        0.00695092        0.01760971
     102         -0.205603        2.000000        0.18355312        0.01726363        0.00643821        0.01766928
     103         -0.204598        2.000000        0.25483505        0.01388665        0.00803318        0.01469701
     104         -0.203777        2.000000        0.27322993        0.00799396        0.00622118        0.01622144
     105         -0.203049        2.000000        0.23418651        0.01156249        0.00749461        0.01264047
     106         -0.202391        2.000000        0.22515275        0.01344264        0.01249329        0.01746497
     107         -0.200919        2.000000        0.21624268        0.01464504        0.00461684        0.01388133
     108         -0.200429        2.000000        0.21525922        0.01283804        0.00921275        0.01812050
     109         -0.199437        2.000000        0.26908700        0.01173935        0.01033645        0.01387982
     110         -0.198772        2.000000        0.24719484        0.01281513        0.00789112        0.01418303
     111         -0.198533        2.000000        0.24968414        0.01433937        0.00543321        0.01241621
     112         -0.197813        2.000000        0.23055017        0.01402373        0.00794542        0.01612318
     113         -0.197623        2.000000        0.22106789        0.01810188        0.00566657        0.01279920
     114         -0.196936        2.000000        0.18032132        0.02118366        0.00655740        0.01122048
     115         -0.196089        2.000000        0.21843792        0.01430626        0.00843264        0.01402685
     116         -0.194720        2.000000        0.21838185        0.01296904        0.00733929        0.01624729
     117         -0.193402        2.000000        0.26037665        0.01214832        0.00971730        0.01232482
     118         -0.193316        2.000000        0.21906978        0.01766646        0.00697338        0.01506643
     119         -0.192098        2.000000        0.24268051        0.01493390        0.00728042        0.01206086
     120         -0.191917        2.000000        0.19409456        0.02087723        0.00721555        0.01378568
     121         -0.190591        2.000000        0.18763935        0.01848038        0.00646843        0.01719666
     122         -0.189777        2.000000        0.25540684        0.01456675        0.00614605        0.01247027
     123         -0.189023        2.000000        0.29251595        0.01174878        0.00649975        0.01042858
     124         -0.187857        2.000000        0.23497172        0.01396939        0.00559139        0.01374298
     125         -0.187344        2.000000        0.22596754        0.01244212        0.00732740        0.02035652
     126         -0.184633        2.000000        0.22525318        0.01516101        0.00807748        0.01559217
     127         -0.183432        2.000000        0.26190532        0.00950433        0.00734741        0.01784333
     128         -0.182550        2.000000        0.28613168        0.01231175        0.00811823        0.00799058
     129         -0.180574        2.000000        0.23158199        0.01084422        0.00655925        0.01758296
     130         -0.177737        2.000000        0.32651096        0.01037451        0.00996473        0.01119720
     131         -0.177217        2.000000        0.27166751        0.01620069        0.00835787        0.01000901
     132         -0.175420        2.000000        0.29590421        0.01346084        0.00895607        0.00757390
     133         -0.172810        2.000000        0.22404719        0.01585285        0.01072425        0.01551180
     134         -0.172008        2.000000        0.15673988        0.01982365        0.00892582        0.01901826
     135         -0.170844        2.000000        0.22585489        0.02087261        0.00980354        0.01342793
     136         -0.169982        2.000000        0.26989384        0.01882065        0.01099746        0.00943854
     137         -0.168804        2.000000        0.30123256        0.00697287        0.01844483        0.01339844
     138         -0.167584        2.000000        0.23971507        0.01535775        0.01183957        0.01351283
     139         -0.166128        2.000000        0.03171617        0.02777572        0.00193880        0.01259976
     140         -0.165055        2.000000        0.06944206        0.00364900        0.00343867        0.03451724
     141         -0.162223        2.000000        0.01814564        0.03276481        0.00150002        0.00991059
     142         -0.152518        2.000000        0.00522763        0.00368838        0.00093627        0.03569989
     143         -0.147755        2.000000        0.00370455        0.02708058        0.00098212        0.01402887
     144         -0.145486        2.000000        0.00795146        0.02691347        0.00206096        0.01478713
     145         -0.144627        2.000000        0.00489281        0.02934982        0.00117531        0.01176666
     146         -0.144078        2.000000        0.00972396        0.03154436        0.00143524        0.00872474
     147         -0.140925        2.000000        0.01034062        0.00338768        0.00217089        0.04968224
     148         -0.139584        2.000000        0.00349863        0.01033563        0.00114364        0.03125138
     149         -0.137332        2.000000        0.01039658        0.03898469        0.00322483        0.01295854
     150         -0.134351        2.000000        0.01668923        0.03916272        0.00493066        0.01235233
     151         -0.121974        2.000000        0.00326792        0.00848385        0.00171103        0.04227367
     152         -0.118472        2.000000        0.00178647        0.00094461        0.00066854        0.03565172
     153         -0.117745        2.000000        0.00527700        0.03112706        0.00244028        0.01840904
     154         -0.116486        2.000000        0.00414305        0.01800487        0.00158227        0.03304417
     155         -0.115364        2.000000        0.00268186        0.03822567        0.00107865        0.00080114
     156         -0.114190        2.000000        0.00574245        0.03674153        0.00209108        0.01301832
     157         -0.110897        2.000000        0.00334818        0.02193304        0.00227423        0.02857297
     158         -0.108863        2.000000        0.00493561        0.03798459        0.00209207        0.01461547
     159         -0.082678        2.000000        0.00349910        0.00123943        0.00105845        0.04674756
     160         -0.078491        2.000000        0.00413303        0.04659991        0.00085380        0.00170834
     161         -0.043991        0.000000        0.02809388        0.00257211        0.01430391        0.00192155
     162         -0.040905        0.000000        0.00713259        0.00770176        0.01550522        0.00661338
     163         -0.039044        0.000000        0.00537064        0.00908239        0.01390990        0.01041483
     164         -0.036696        0.000000        0.00550946        0.00726589        0.01412460        0.01152772
     165         -0.035642        0.000000        0.01157868        0.00369346        0.01246826        0.00357711
     166         -0.028410        0.000000        0.01153753        0.01957136        0.01429310        0.01167975
     167         -0.026615        0.000000        0.01437488        0.01567548        0.01188429        0.01499854
     168         -0.023451        0.000000        0.01571577        0.00905208        0.01536985        0.02551476
     169         -0.022354        0.000000        0.01408199        0.01922320        0.01875656        0.01846001
     170         -0.021768        0.000000        0.01400377        0.01286906        0.01327696        0.02121434
     171         -0.020111        0.000000        0.01492731        0.01026359        0.01769927        0.02168339
     172         -0.018870        0.000000        0.01552133        0.01970084        0.01542077        0.02384278
     173         -0.016307        0.000000        0.01307104        0.02296256        0.01662639        0.01164288
     174         -0.014633        0.000000        0.01917188        0.02573536        0.01949423        0.01287244
     175         -0.004387        0.000000        0.01045077        0.01859518        0.02293313        0.02830779
     176          0.000341        0.000000        0.01351421        0.03230759        0.02340464        0.02196627
     177          0.000712        0.000000        0.00986901        0.03479084        0.02223533        0.02058145
     178          0.004446        0.000000        0.01177768        0.02005517        0.02423952        0.03038742
     179          0.005563        0.000000        0.01140536        0.02414809        0.02374135        0.03208826
     180          0.009003        0.000000        0.01940106        0.02656348        0.03325369        0.02120533
     181          0.019749        0.000000        0.07210900        0.05309547        0.06062038        0.13954795
     182          0.020732        0.000000        0.04430464        0.06558133        0.04068829        0.06485099
     183          0.025429        0.000000        0.03418908        0.07166488        0.03402903        0.03412053
     184          0.026064        0.000000        0.02132296        0.01772805        0.01529187        0.06520267
     185          0.028625        0.000000        0.07149344        0.11818610        0.05686018        0.06793393
     186          0.032073        0.000000        0.07919047        0.08287149        0.05730249        0.08235309
     187          0.038478        0.000000        0.07056095        0.05782603        0.05695291        0.10145693
     188          0.040949        0.000000        0.07551681        0.06587449        0.05675783        0.08065148
     189          0.042592        0.000000        0.07288355        0.06962432        0.05291280        0.08907659
     190          0.043898        0.000000        0.07468595        0.08662587        0.05632510        0.08705667
     191          0.046027        0.000000        0.06473340        0.06403529        0.04608446        0.08961994
     192          0.046804        0.000000        0.06923170        0.09109412        0.04763202        0.07467992
     193          0.051432        0.000000        0.06172477        0.13548827        0.05869865        0.03047375
     194          0.052476        0.000000        0.07026500        0.06925312        0.06473956        0.11067158
     195          0.053603        0.000000        0.06770581        0.06003424        0.06158932        0.10207844
     196          0.055239        0.000000        0.06850054        0.10489989        0.07261683        0.03829828
     197          0.056121        0.000000        0.05752400        0.12109814        0.06164798        0.05407563
     198          0.057463        0.000000        0.06339426        0.11878251        0.06905863        0.05459425
     199          0.060688        0.000000        0.07347393        0.06682014        0.05074159        0.05693752
     200          0.061546        0.000000        0.05716687        0.04994063        0.03532147        0.06533853
     201          0.064406        0.000000        0.07426924        0.06125120        0.04101929        0.04154635
     202          0.066522        0.000000        0.09510667        0.05266719        0.05260981        0.08081096
     203          0.067499        0.000000        0.06723530        0.04159086        0.05020359        0.06220686
     204          0.068128        0.000000        0.08837777        0.05037942        0.05001594        0.06346320
     205          0.068340        0.000000        0.06443969        0.03452470        0.04454010        0.06765253
     206          0.069329        0.000000        0.11361507        0.04876214        0.04932198        0.03010050
     207          0.070425        0.000000        0.13716606        0.04934374        0.05729249        0.04027613
     208          0.071351        0.000000        0.09054343        0.05076620        0.04944687        0.07850681
     209          0.072457        0.000000        0.10331811        0.04140095        0.05714495        0.05170063
     210          0.073560        0.000000        0.10589960        0.04974976        0.05824035        0.05541558
