# Projected DOS for atomic kind Ge at iteration step i = 0, E(Fermi) =    -0.079195 a.u.
#     MO Eigenvalue [a.u.]      Occupation                 s                py                pz                px               d-2               d-1                d0               d+1               d+2
       1         -0.501040        2.000000        0.75248174        0.00672645        0.02064356        0.00594519        0.00080943        0.00053464        0.00759297        0.00071191        0.00107402
       2         -0.483981        2.000000        0.01863874        0.00099773        0.00315121        0.00165318        0.00018037        0.00005580        0.00048778        0.00015001        0.00012810
       3         -0.482794        2.000000        0.64973404        0.03723556        0.01333814        0.07256503        0.00667280        0.00209142        0.00335722        0.00402423        0.00373140
       4         -0.480367        2.000000        0.65332208        0.07744185        0.01433698        0.03836269        0.00377168        0.00378095        0.00261553        0.00226087        0.00753821
       5         -0.476156        2.000000        0.65169998        0.03858438        0.00902719        0.07871880        0.00758042        0.00197167        0.00362322        0.00485915        0.00428432
       6         -0.474826        2.000000        0.64894918        0.06118081        0.01021498        0.05433778        0.00552387        0.00301390        0.00291975        0.00322011        0.00655944
       7         -0.472773        2.000000        0.65241203        0.09519799        0.00920008        0.02015321        0.00284187        0.00532896        0.00360731        0.00120650        0.00953879
       8         -0.468060        2.000000        0.61500582        0.03446766        0.00766426        0.08230436        0.00785605        0.00187112        0.00277868        0.00435603        0.00333142
       9         -0.466609        2.000000        0.03277953        0.00218535        0.00173771        0.00353987        0.00042562        0.00015518        0.00038341        0.00036561        0.00027189
      10         -0.462415        2.000000        0.01392375        0.00119916        0.00174841        0.00103419        0.00016333        0.00013098        0.00031273        0.00010342        0.00021140
      11         -0.461125        2.000000        0.01203399        0.00064620        0.00126582        0.00137120        0.00020522        0.00006840        0.00022836        0.00013004        0.00008854
      12         -0.460334        2.000000        0.00795301        0.00048213        0.00158971        0.00078771        0.00012683        0.00004945        0.00026625        0.00010263        0.00007405
      13         -0.457396        2.000000        0.00561268        0.00032048        0.00151449        0.00047118        0.00007479        0.00007280        0.00019333        0.00005072        0.00007898
      14         -0.454887        2.000000        0.00301236        0.00042172        0.00089119        0.00020757        0.00003703        0.00003688        0.00013898        0.00003930        0.00006329
      15         -0.440262        2.000000        0.54887315        0.13791271        0.00274152        0.07966700        0.01295364        0.00846288        0.00088901        0.00589974        0.01666774
      16         -0.436293        2.000000        0.54372372        0.06513492        0.00244859        0.15091529        0.01785441        0.00545196        0.00069562        0.00959619        0.01262492
      17         -0.435359        2.000000        0.54738765        0.07720137        0.00157197        0.13030454        0.01706942        0.00613852        0.00035930        0.01066124        0.01605912
      18         -0.432392        2.000000        0.54545307        0.10736963        0.00200840        0.10604348        0.01843777        0.00797817        0.00087310        0.00729672        0.01295007
      19         -0.431070        2.000000        0.53936457        0.12146192        0.00153726        0.09030052        0.01493057        0.00716643        0.00048963        0.00591092        0.01683998
      20         -0.429810        2.000000        0.55268043        0.12748661        0.00203853        0.06636815        0.01092110        0.00947107        0.00041854        0.00419644        0.02761030
      21         -0.429254        2.000000        0.54869285        0.08024978        0.00245412        0.11890331        0.02395452        0.00536648        0.00085951        0.00821320        0.01420862
      22         -0.425206        2.000000        0.40599486        0.10276591        0.00103039        0.05510057        0.00941308        0.00570826        0.00036948        0.00363920        0.01827509
      23         -0.424198        2.000000        0.13515057        0.02855524        0.00078305        0.02330980        0.00392097        0.00188844        0.00009738        0.00144968        0.00508123
      24         -0.421661        2.000000        0.02630238        0.00358648        0.00039699        0.00619219        0.00099791        0.00024636        0.00004761        0.00050668        0.00065509
      25         -0.420230        2.000000        0.51795592        0.06029785        0.00261589        0.12035665        0.02277882        0.00430518        0.00062053        0.00833499        0.01289915
      26         -0.419010        2.000000        0.03472916        0.00564988        0.00073883        0.00737930        0.00142583        0.00042299        0.00010396        0.00054473        0.00095353
      27         -0.418274        2.000000        0.00515781        0.00092070        0.00032092        0.00117445        0.00016332        0.00011840        0.00003985        0.00007832        0.00018927
      28         -0.417290        2.000000        0.00374855        0.00078647        0.00042870        0.00077439        0.00011156        0.00011998        0.00004518        0.00009952        0.00012464
      29         -0.416206        2.000000        0.00116966        0.00024184        0.00017049        0.00031778        0.00004692        0.00003439        0.00002123        0.00004440        0.00004395
      30         -0.414179        2.000000        0.00255933        0.00042736        0.00031338        0.00061599        0.00009735        0.00004059        0.00003538        0.00007303        0.00009103
      31         -0.413052        2.000000        0.00354786        0.00067873        0.00038365        0.00086499        0.00013529        0.00004830        0.00003896        0.00008718        0.00008565
      32         -0.412094        2.000000        0.00088809        0.00026112        0.00038838        0.00060935        0.00002500        0.00002897        0.00003902        0.00003519        0.00002020
      33         -0.377616        2.000000        0.37930930        0.07959130        0.03208588        0.22120512        0.01081922        0.00415546        0.00777915        0.01880920        0.00340030
      34         -0.375039        2.000000        0.38460248        0.09360528        0.03876789        0.18842420        0.00995441        0.00669179        0.00907743        0.01642816        0.00598352
      35         -0.372868        2.000000        0.36418251        0.22773831        0.05751465        0.02151011        0.00230794        0.02099192        0.00541457        0.00508684        0.01232921
      36         -0.366757        2.000000        0.38829996        0.10003797        0.06352578        0.10540999        0.01642920        0.01208449        0.00747946        0.01150618        0.00952274
      37         -0.364560        2.000000        0.36814441        0.09991382        0.05483631        0.11536321        0.01408791        0.01154052        0.00705871        0.01169995        0.01157185
      38         -0.363909        2.000000        0.02739379        0.00660076        0.00349466        0.00991091        0.00135920        0.00060434        0.00062880        0.00108224        0.00071384
      39         -0.362399        2.000000        0.34117853        0.09861881        0.04377604        0.08847426        0.01090177        0.01126808        0.00855227        0.01001445        0.01501083
      40         -0.361604        2.000000        0.19257908        0.05656237        0.02584163        0.05631455        0.00635855        0.00558692        0.00501957        0.00574773        0.00966141
      41         -0.361087        2.000000        0.30432109        0.07407616        0.03873716        0.09928023        0.01426722        0.00601967        0.00903463        0.00950550        0.00776420
      42         -0.360851        2.000000        0.22457261        0.06146199        0.03130360        0.06995855        0.00791286        0.00572937        0.00615709        0.00683986        0.00899269
      43         -0.360023        2.000000        0.19193466        0.07859037        0.02442729        0.03789233        0.00421864        0.00747256        0.00532091        0.00416165        0.00943832
      44         -0.357966        2.000000        0.37163532        0.10828791        0.04554055        0.11496122        0.01242160        0.01215332        0.01154130        0.01040951        0.01570539
      45         -0.354578        2.000000        0.02556751        0.00703152        0.00371060        0.00841681        0.00114278        0.00058933        0.00047679        0.00090838        0.00087455
      46         -0.352462        2.000000        0.02408380        0.00817753        0.00340353        0.00710476        0.00074675        0.00080216        0.00056011        0.00060355        0.00103850
      47         -0.351536        2.000000        0.01250206        0.00281510        0.00694248        0.00364544        0.00043785        0.00034442        0.00046953        0.00035338        0.00026416
      48         -0.351019        2.000000        0.00884647        0.00255920        0.00344727        0.00261835        0.00029355        0.00027424        0.00022282        0.00024915        0.00034416
      49         -0.348666        2.000000        0.00618517        0.00132098        0.00481186        0.00153814        0.00018287        0.00018272        0.00029734        0.00019485        0.00018409
      50         -0.346529        2.000000        0.01418719        0.00260510        0.01160969        0.00324600        0.00038812        0.00036552        0.00053573        0.00046426        0.00030664
      51         -0.343592        2.000000        0.19291715        0.01898500        0.21385817        0.02867953        0.00406985        0.00477432        0.00805004        0.00652028        0.00307626
      52         -0.337088        2.000000        0.22070907        0.03210652        0.21956516        0.02654326        0.00509087        0.00688080        0.01069133        0.00622616        0.00480242
      53         -0.335536        2.000000        0.22152667        0.02583465        0.22824508        0.02578234        0.00493108        0.00744006        0.00960972        0.00638724        0.00483567
      54         -0.333391        2.000000        0.24491857        0.03399111        0.21236265        0.03391286        0.00496103        0.00640563        0.01392666        0.00754378        0.00596487
      55         -0.331151        2.000000        0.15757219        0.01245287        0.15828541        0.03057074        0.00503301        0.00215225        0.01055141        0.00682554        0.00215131
      56         -0.329276        2.000000        0.15224388        0.02997301        0.14909693        0.01030985        0.00138497        0.00697526        0.01011094        0.00182881        0.00550123
      57         -0.325191        2.000000        0.18518570        0.02050996        0.19549887        0.03443075        0.00551720        0.00464261        0.01172442        0.00600983        0.00311268
      58         -0.322125        2.000000        0.06227383        0.01167825        0.05203494        0.00782211        0.00113041        0.00213666        0.00318172        0.00101899        0.00187612
      59         -0.319873        2.000000        0.08203441        0.01480571        0.05369397        0.01261211        0.00202211        0.00240915        0.00496584        0.00178303        0.00256503
      60         -0.318682        2.000000        0.07726733        0.00825750        0.05804873        0.01670134        0.00244181        0.00189638        0.00408693        0.00258057        0.00128169
      61         -0.317063        2.000000        0.08311972        0.01399035        0.05635567        0.01242490        0.00207235        0.00226853        0.00480992        0.00267740        0.00226334
      62         -0.315821        2.000000        0.06660408        0.01264524        0.04801923        0.00771909        0.00126390        0.00194933        0.00382121        0.00181738        0.00195110
      63         -0.313641        2.000000        0.05722318        0.00875425        0.04252683        0.01039036        0.00154069        0.00179296        0.00332073        0.00151998        0.00148169
      64         -0.311350        2.000000        0.08156725        0.00375009        0.13546685        0.00538577        0.00094277        0.00054021        0.00495180        0.00113487        0.00044081
      65         -0.242956        2.000000        0.00227086        0.01041193        0.01919283        0.01064151        0.00024248        0.00043852        0.00126266        0.00062554        0.00047673
      66         -0.241762        2.000000        0.00204871        0.00910413        0.02248866        0.01437956        0.00025191        0.00040655        0.00093965        0.00039834        0.00053329
      67         -0.238649        2.000000        0.00214183        0.02558162        0.04167950        0.01144512        0.00062642        0.00090488        0.00165659        0.00030821        0.00055760
      68         -0.236419        2.000000        0.00929017        0.04868023        0.13587837        0.07605425        0.00378880        0.00132921        0.00499443        0.00127745        0.00326788
      69         -0.235396        2.000000        0.00815635        0.12646667        0.17590442        0.05776950        0.00351707        0.00081446        0.00573790        0.00072685        0.00227860
      70         -0.233466        2.000000        0.00567900        0.04466239        0.15296356        0.09075175        0.00110879        0.00067905        0.00473958        0.00093081        0.00178595
      71         -0.232573        2.000000        0.00706912        0.05981672        0.16857027        0.10055350        0.00079098        0.00090821        0.00596275        0.00118480        0.00247284
      72         -0.230282        2.000000        0.00406886        0.05398284        0.09440606        0.02640614        0.00161576        0.00092907        0.00367092        0.00050155        0.00131590
      73         -0.228817        2.000000        0.00497515        0.05522210        0.14653236        0.04300701        0.00217230        0.00088298        0.00604898        0.00088973        0.00169429
      74         -0.227816        2.000000        0.00423886        0.04824583        0.14923059        0.05735393        0.00127173        0.00078570        0.00665740        0.00072480        0.00133265
      75         -0.226444        2.000000        0.00631747        0.05226210        0.13547922        0.06341837        0.00137564        0.00074635        0.00390852        0.00124125        0.00287810
      76         -0.226120        2.000000        0.00449150        0.01925915        0.06354354        0.02956605        0.00121137        0.00074173        0.00200228        0.00059618        0.00166873
      77         -0.224592        2.000000        0.00340262        0.03404449        0.08952065        0.03361009        0.00142432        0.00032204        0.00587193        0.00071365        0.00104976
      78         -0.221553        2.000000        0.00539725        0.04815899        0.08692540        0.02072082        0.00214848        0.00042168        0.00260050        0.00041669        0.00332564
      79         -0.221225        2.000000        0.00803285        0.08243637        0.23002111        0.06916174        0.00355318        0.00174016        0.00996755        0.00219300        0.00527795
      80         -0.220490        2.000000        0.00436711        0.04161836        0.07836558        0.03481581        0.00180032        0.00104245        0.00626648        0.00141321        0.00188786
      81         -0.219869        2.000000        0.00560611        0.07074675        0.17355075        0.03539873        0.00257823        0.00145174        0.01846896        0.00139082        0.00263876
      82         -0.219130        2.000000        0.00515710        0.01716086        0.03657658        0.01751517        0.00150199        0.00053640        0.00414967        0.00038228        0.00126190
      83         -0.218911        2.000000        0.00763776        0.08131475        0.19067913        0.05720457        0.00411811        0.00132991        0.00797609        0.00117919        0.00451639
      84         -0.218316        2.000000        0.00956594        0.06450359        0.12953208        0.07058968        0.00403531        0.00214171        0.00783782        0.00207534        0.00406604
      85         -0.217669        2.000000        0.01297868        0.12173039        0.22183413        0.05542091        0.00647444        0.00124448        0.01567379        0.00308150        0.00457759
      86         -0.217223        2.000000        0.01130907        0.05265135        0.11279119        0.04688141        0.00395357        0.00102437        0.00992246        0.00101791        0.00275402
      87         -0.215953        2.000000        0.00871916        0.07516605        0.14197764        0.05481974        0.00460631        0.00097517        0.00958063        0.00165310        0.00266402
      88         -0.215669        2.000000        0.00690427        0.03538224        0.11540511        0.03190146        0.00236439        0.00132823        0.00944492        0.00112506        0.00267568
      89         -0.214879        2.000000        0.00448557        0.02701004        0.09692943        0.04086913        0.00207556        0.00168061        0.00719033        0.00089875        0.00247907
      90         -0.213964        2.000000        0.00764273        0.04709089        0.13702760        0.03678903        0.00397627        0.00091583        0.00633728        0.00089196        0.00340811
      91         -0.213210        2.000000        0.00891509        0.05033666        0.14649050        0.04790235        0.00312770        0.00149924        0.01276182        0.00130056        0.00280864
      92         -0.212803        2.000000        0.01193251        0.03385534        0.11382673        0.05267176        0.00482577        0.00128134        0.01003543        0.00245311        0.00225533
      93         -0.211348        2.000000        0.00973998        0.04319337        0.15197041        0.06642062        0.00348488        0.00193344        0.01855461        0.00146338        0.00241559
      94         -0.210996        2.000000        0.01139839        0.10615076        0.17308273        0.05604507        0.00349956        0.00200375        0.01095829        0.00244205        0.00599935
      95         -0.210630        2.000000        0.00518529        0.04465110        0.12580817        0.04899200        0.00313310        0.00220679        0.00921865        0.00213367        0.00226729
      96         -0.209925        2.000000        0.00434971        0.03061484        0.11767126        0.04378794        0.00203850        0.00308426        0.01581399        0.00203620        0.00152585
      97         -0.209620        2.000000        0.01230989        0.06266537        0.17802585        0.08421120        0.00632965        0.00097326        0.00785395        0.00223980        0.00400678
      98         -0.208750        2.000000        0.01097239        0.05137894        0.14247902        0.04676966        0.00238886        0.00188893        0.01287842        0.00193745        0.00513756
      99         -0.208224        2.000000        0.00664665        0.03755837        0.15846419        0.04325008        0.00236893        0.00274712        0.01590446        0.00176868        0.00247117
     100         -0.207133        2.000000        0.00358309        0.06090051        0.15565890        0.06737551        0.00187831        0.00445447        0.01829059        0.00245770        0.00194460
     101         -0.206725        2.000000        0.01532366        0.06382936        0.16007712        0.14973377        0.00696942        0.00229976        0.01485531        0.00294034        0.00694756
     102         -0.205383        2.000000        0.01316028        0.09569424        0.15010155        0.15296670        0.00550351        0.00413189        0.01493507        0.00437435        0.00611676
     103         -0.204810        2.000000        0.01393303        0.08065809        0.10002679        0.06890011        0.00395867        0.00139839        0.00950898        0.00246679        0.00692692
     104         -0.203496        2.000000        0.01450175        0.08225132        0.14345692        0.11610312        0.00566118        0.00356551        0.01571862        0.00173251        0.00424062
     105         -0.203235        2.000000        0.01953806        0.05348887        0.15603199        0.09031225        0.00645438        0.00213179        0.01268291        0.00243278        0.00539364
     106         -0.202410        2.000000        0.01457012        0.06798945        0.15691012        0.11923523        0.00466254        0.00293297        0.02661336        0.00435811        0.00447696
     107         -0.200863        2.000000        0.01120825        0.08177194        0.14374140        0.04849508        0.00401031        0.00174525        0.01693029        0.00190395        0.00513134
     108         -0.200399        2.000000        0.00757826        0.06595032        0.12182621        0.08875480        0.00395616        0.00282148        0.01317749        0.00326744        0.00390088
     109         -0.199784        2.000000        0.00879547        0.06954243        0.12182360        0.10849707        0.00522384        0.00297605        0.01599793        0.00274181        0.00411083
     110         -0.199084        2.000000        0.00763724        0.05313578        0.21234233        0.05537055        0.00395314        0.00315914        0.02936841        0.00222716        0.00313875
     111         -0.199018        2.000000        0.02153754        0.13518708        0.18650299        0.15690740        0.00954659        0.00407484        0.01955945        0.00340157        0.00665107
     112         -0.198257        2.000000        0.01582176        0.06425558        0.18041640        0.08757381        0.00719378        0.00374975        0.01781827        0.00274460        0.00442100
     113         -0.197233        2.000000        0.00919120        0.07363468        0.09568867        0.04965877        0.00429074        0.00160357        0.01071441        0.00244202        0.00441878
     114         -0.196847        2.000000        0.03681470        0.22874103        0.19183338        0.06723927        0.00767533        0.00370619        0.01603309        0.00240708        0.01677706
     115         -0.196129        2.000000        0.01352058        0.05394050        0.14987919        0.06432098        0.00655437        0.00239349        0.01388544        0.00193441        0.00532766
     116         -0.195255        2.000000        0.02978145        0.13409395        0.23208213        0.12614041        0.01156143        0.00436991        0.01844977        0.00552531        0.00727534
     117         -0.194074        2.000000        0.01914235        0.12285933        0.17692363        0.09081287        0.01161130        0.00292475        0.01886204        0.00397406        0.00675564
     118         -0.193409        2.000000        0.00597636        0.05516898        0.11946799        0.04956164        0.00296145        0.00164796        0.01672867        0.00306333        0.00371583
     119         -0.192490        2.000000        0.02524439        0.15137970        0.16083920        0.09429465        0.00540653        0.00313464        0.01274370        0.00286734        0.01445917
     120         -0.192198        2.000000        0.01386290        0.10456395        0.11331648        0.10919430        0.01024948        0.00288776        0.01367733        0.00300925        0.00280171
     121         -0.190613        2.000000        0.01786564        0.12850027        0.12634655        0.13060631        0.00816828        0.00334741        0.01379460        0.00355191        0.00786239
     122         -0.189912        2.000000        0.00759549        0.05517310        0.14465213        0.10421088        0.00419613        0.00479714        0.01681235        0.00341491        0.00695515
     123         -0.189708        2.000000        0.01969179        0.10100742        0.19153875        0.10403979        0.01032803        0.00247303        0.01649114        0.00523671        0.00591031
     124         -0.188393        2.000000        0.02412359        0.12157904        0.17890635        0.13049739        0.00926344        0.00282862        0.01222113        0.00300945        0.01224311
     125         -0.187290        2.000000        0.01183853        0.08798878        0.26681727        0.11394431        0.00427999        0.00516213        0.03050243        0.00759222        0.00671787
     126         -0.185041        2.000000        0.01416717        0.08900043        0.20493487        0.13564322        0.00903927        0.00595893        0.03072668        0.00323504        0.00786748
     127         -0.183614        2.000000        0.02450926        0.08261022        0.23201071        0.15626642        0.01268919        0.00482499        0.02513536        0.00452345        0.01142519
     128         -0.182709        2.000000        0.01276911        0.15717336        0.18357330        0.10465632        0.01071014        0.00458521        0.03015422        0.00646482        0.00610133
     129         -0.180905        2.000000        0.01504866        0.11450342        0.19952438        0.19675804        0.00938426        0.00652506        0.02522072        0.00695933        0.01260217
     130         -0.178187        2.000000        0.01017312        0.08471712        0.26228258        0.07526978        0.00671382        0.00523253        0.03914656        0.00491493        0.00802307
     131         -0.177078        2.000000        0.01479953        0.12885341        0.25476242        0.10095249        0.00590682        0.00514814        0.04210848        0.00606379        0.01333355
     132         -0.175518        2.000000        0.01150024        0.11346678        0.21020357        0.09528785        0.00674456        0.00543989        0.03539188        0.00779455        0.00916584
     133         -0.173218        2.000000        0.01867112        0.15648270        0.25639117        0.10566842        0.01514033        0.00516588        0.03578421        0.01000155        0.00854915
     134         -0.172528        2.000000        0.02287089        0.24440125        0.21746488        0.15657896        0.01716589        0.00838040        0.01921549        0.01086054        0.01586505
     135         -0.171932        2.000000        0.01740135        0.19068349        0.22056724        0.22836137        0.01527024        0.01118874        0.01785627        0.01056544        0.01396661
     136         -0.169437        2.000000        0.02127585        0.18715664        0.26082075        0.09782856        0.00890289        0.01344141        0.02789123        0.00896921        0.01670101
     137         -0.168500        2.000000        0.01423594        0.03770829        0.26325861        0.07169017        0.00595459        0.00526667        0.06146665        0.00315407        0.00484359
     138         -0.167496        2.000000        0.01709409        0.10560317        0.25806100        0.10038381        0.01111647        0.00621121        0.04676383        0.00621816        0.00852982
     139         -0.165305        2.000000        0.00088164        0.00918588        0.01521185        0.00530956        0.00061200        0.00055336        0.00296165        0.00034801        0.00051757
     140         -0.163959        2.000000        0.00267849        0.01029134        0.04150931        0.01368404        0.00122361        0.00085565        0.00841981        0.00055443        0.00152067
     141         -0.161466        2.000000        0.00050804        0.00259242        0.00785602        0.00367656        0.00029570        0.00020973        0.00158617        0.00013072        0.00024479
     142         -0.151245        2.000000        0.00006335        0.00050430        0.00143827        0.00042645        0.00002744        0.00003066        0.00020992        0.00002577        0.00004849
     143         -0.146951        2.000000        0.00004432        0.00046717        0.00066997        0.00094000        0.00003588        0.00003199        0.00004687        0.00004913        0.00003117
     144         -0.144567        2.000000        0.00009006        0.00112685        0.00116559        0.00534414        0.00009875        0.00006494        0.00011299        0.00014321        0.00006717