# Projected DOS for atomic kind H at iteration step i = 0, E(Fermi) =    -0.078200 a.u.
#     MO Eigenvalue [a.u.]      Occupation                 s                py                pz                px
       1         -0.500273        2.000000        0.10716195        0.00144575        0.08183863        0.00091883
       2         -0.485399        2.000000        0.14691644        0.00085419        0.11602376        0.00041001
       3         -0.482420        2.000000        0.10160757        0.00538564        0.07325708        0.00786835
       4         -0.479578        2.000000        0.09585858        0.00892895        0.07359701        0.00361067
       5         -0.475786        2.000000        0.09991627        0.00293777        0.07503467        0.00986230
       6         -0.474541        2.000000        0.10666774        0.00591131        0.07208829        0.00781234
       7         -0.472479        2.000000        0.09894107        0.01281053        0.07188558        0.00125296
       8         -0.469007        2.000000        0.11059111        0.00757801        0.08190115        0.00516143
       9         -0.467486        2.000000        0.10250940        0.00495603        0.07273946        0.00990867
      10         -0.463323        2.000000        0.10765989        0.00579741        0.08423618        0.00701817
      11         -0.462555        2.000000        0.10960227        0.00480998        0.08406601        0.00792043
      12         -0.462308        2.000000        0.10614158        0.00489759        0.08192950        0.00764025
      13         -0.458438        2.000000        0.11419099        0.00634428        0.08043391        0.00657531
      14         -0.455758        2.000000        0.10980280        0.01036002        0.07699987        0.00394146
      15         -0.439895        2.000000        0.10558989        0.01065051        0.06178219        0.00571928
      16         -0.436227        2.000000        0.10446647        0.00467224        0.06028303        0.01367212
      17         -0.433828        2.000000        0.10705058        0.00588772        0.05802450        0.01326580
      18         -0.432200        2.000000        0.10974179        0.00972052        0.05972151        0.00739911
      19         -0.430658        2.000000        0.11100869        0.00983171        0.05965533        0.00687131
      20         -0.430183        2.000000        0.11473793        0.00964989        0.05881879        0.00708361
      21         -0.427989        2.000000        0.11220941        0.00697916        0.06181241        0.00558180
      22         -0.426182        2.000000        0.10535055        0.00810002        0.05870088        0.00759786
      23         -0.425294        2.000000        0.10972141        0.00825811        0.06100084        0.00632096
      24         -0.423375        2.000000        0.10666089        0.00882215        0.05870159        0.00616834
      25         -0.420390        2.000000        0.11324194        0.00845580        0.05628983        0.00509767
      26         -0.419462        2.000000        0.10679555        0.00773474        0.05404595        0.00608761
      27         -0.418557        2.000000        0.11160004        0.00487953        0.06004668        0.01240569
      28         -0.417388        2.000000        0.10967637        0.00500732        0.05662163        0.00717779
      29         -0.416970        2.000000        0.10798092        0.00648247        0.05416713        0.00725777
      30         -0.415570        2.000000        0.10852917        0.00685864        0.05565891        0.00694025
      31         -0.415270        2.000000        0.11028265        0.00758536        0.05704522        0.00670431
      32         -0.412215        2.000000        0.11439638        0.00663709        0.05463826        0.00682075
      33         -0.377242        2.000000        0.16231879        0.00428487        0.04315372        0.01621467
      34         -0.374131        2.000000        0.16127535        0.00578292        0.04206069        0.01303033
      35         -0.371905        2.000000        0.17060378        0.01819821        0.03744032        0.00260527
      36         -0.368307        2.000000        0.19858815        0.00706176        0.04132006        0.00508430
      37         -0.365112        2.000000        0.16191522        0.00625324        0.04016103        0.00641069
      38         -0.364393        2.000000        0.18286855        0.00717712        0.04105584        0.00787520
      39         -0.362926        2.000000        0.17805005        0.00697557        0.03616330        0.00686072
      40         -0.362018        2.000000        0.15619499        0.00497730        0.03927380        0.00987986
      41         -0.361482        2.000000        0.16550169        0.00689905        0.04002121        0.00538066
      42         -0.360438        2.000000        0.16799938        0.00545160        0.04642564        0.00458721
      43         -0.358394        2.000000        0.17985103        0.00438783        0.04259764        0.00698563
      44         -0.356813        2.000000        0.18298517        0.00659335        0.04132234        0.00558534
      45         -0.355471        2.000000        0.17545922        0.00490564        0.04358782        0.00557947
      46         -0.353009        2.000000        0.18090650        0.00476218        0.03935617        0.00736867
      47         -0.352233        2.000000        0.17381592        0.00639225        0.03905188        0.00519560
      48         -0.350917        2.000000        0.17554743        0.00677894        0.03919382        0.00572311
      49         -0.349583        2.000000        0.17742573        0.00436390        0.03853261        0.00553595
      50         -0.347915        2.000000        0.17813824        0.00562612        0.03756338        0.00417997
      51         -0.342314        2.000000        0.28568195        0.00437469        0.02748894        0.00388114
      52         -0.336591        2.000000        0.31037687        0.00382589        0.02249721        0.00321672
      53         -0.335075        2.000000        0.30829346        0.00452164        0.02065959        0.00170250
      54         -0.331766        2.000000        0.29283734        0.00300412        0.02442102        0.00450859
      55         -0.331050        2.000000        0.29874228        0.00191675        0.02363520        0.00463741
      56         -0.328485        2.000000        0.30231167        0.00505387        0.02304303        0.00278486
      57         -0.326750        2.000000        0.30236380        0.00187381        0.02044893        0.00437605
      58         -0.322259        2.000000        0.28646646        0.00239786        0.04454411        0.00296683
      59         -0.320215        2.000000        0.28151480        0.00200772        0.04775578        0.00278315
      60         -0.318245        2.000000        0.27889116        0.00297608        0.05104060        0.00273023
      61         -0.316817        2.000000        0.28123440        0.00183925        0.04460252        0.00236797
      62         -0.315703        2.000000        0.28384593        0.00172832        0.04398028        0.00207349
      63         -0.313996        2.000000        0.27953480        0.00294832        0.04369164        0.00152951
      64         -0.311296        2.000000        0.30351498        0.00108796        0.05148193        0.00088832
      65         -0.244766        2.000000        0.23414204        0.00785035        0.00138625        0.02366482
      66         -0.242081        2.000000        0.22761763        0.01183366        0.00214884        0.02986446
      67         -0.238694        2.000000        0.22008166        0.02689492        0.00238258        0.01126727
      68         -0.236932        2.000000        0.20640490        0.01553362        0.00456314        0.02841907
      69         -0.235086        2.000000        0.21109060        0.03190445        0.00394161        0.02102222
      70         -0.234100        2.000000        0.20363605        0.01390858        0.00347118        0.02298295
      71         -0.232594        2.000000        0.21313624        0.01533719        0.00311343        0.02532559
      72         -0.230608        2.000000        0.20524329        0.01665266        0.00380615        0.02261387
      73         -0.229127        2.000000        0.21150481        0.01351719        0.00398572        0.02469059
      74         -0.228639        2.000000        0.20909746        0.02087550        0.00382277        0.01163983
      75         -0.227474        2.000000        0.19468659        0.01276645        0.00276977        0.02329669
      76         -0.226677        2.000000        0.18376296        0.01838014        0.00377561        0.02179528
      77         -0.224780        2.000000        0.20537082        0.01555715        0.00397012        0.01550467
      78         -0.221814        2.000000        0.22100421        0.01703765        0.00574875        0.01151511
      79         -0.221549        2.000000        0.18781398        0.01441426        0.00551629        0.01724029
      80         -0.221113        2.000000        0.13991669        0.02366856        0.00433962        0.01673994
      81         -0.220591        2.000000        0.22485290        0.01083884        0.00576325        0.01770761
      82         -0.219658        2.000000        0.18556638        0.02298767        0.00392424        0.01349003
      83         -0.219023        2.000000        0.18263077        0.02328466        0.00426127        0.01130241
      84         -0.218649        2.000000        0.20114167        0.01869944        0.00445052        0.01824277
      85         -0.217655        2.000000        0.15768177        0.01460745        0.00770267        0.02517277
      86         -0.216748        2.000000        0.20293596        0.01384699        0.00505956        0.02040900
      87         -0.215949        2.000000        0.21448395        0.02021598        0.00724539        0.01258856
      88         -0.215570        2.000000        0.15859121        0.02406125        0.00575721        0.01430966
      89         -0.215187        2.000000        0.17286484        0.02470216        0.00315546        0.01296660
      90         -0.213865        2.000000        0.20808502        0.01424432        0.00925159        0.01553864
      91         -0.213149        2.000000        0.19012836        0.01315044        0.00918889        0.02279468
      92         -0.212891        2.000000        0.20958052        0.01909419        0.00902985        0.01370813
      93         -0.211936        2.000000        0.24140462        0.01443121        0.00567513        0.01654238
      94         -0.210764        2.000000        0.14294473        0.02251343        0.00564290        0.01585381
      95         -0.210440        2.000000        0.21176951        0.01690735        0.00731781        0.01317595
      96         -0.210255        2.000000        0.19980863        0.01856325        0.00612207        0.01448866
      97         -0.209960        2.000000        0.19687831        0.01386429        0.00781269        0.01751337
      98         -0.209842        2.000000        0.27791081        0.01223246        0.00901926        0.01281876
      99         -0.207842        2.000000        0.29212239        0.00835288        0.00920720        0.01460288
     100         -0.206976        2.000000        0.23363146        0.01406562        0.00452216        0.01897452
     101         -0.206765        2.000000        0.23154739        0.01042299        0.00760290        0.01617021
     102         -0.205668        2.000000        0.18360059        0.01816081        0.00660757        0.01681083
     103         -0.204507        2.000000        0.26050579        0.01323271        0.00675418        0.01501985
     104         -0.203966        2.000000        0.27113427        0.00862275        0.00732896        0.01513549
     105         -0.203001        2.000000        0.24500651        0.01139892        0.00733613        0.01178418
     106         -0.202404        2.000000        0.22237695        0.01361383        0.01116028        0.01841108
     107         -0.201256        2.000000        0.21934740        0.01422880        0.00494356        0.01370727
     108         -0.200466        2.000000        0.22720725        0.01139448        0.00984902        0.01684361
     109         -0.199186        2.000000        0.27035990        0.01291934        0.01082453        0.01432354
     110         -0.198834        2.000000        0.22711389        0.01483760        0.00567466        0.01288098
     111         -0.198533        2.000000        0.23521403        0.01109818        0.00740313        0.01468066
     112         -0.197988        2.000000        0.26113485        0.01670731        0.00806088        0.01073935
     113         -0.197730        2.000000        0.19679558        0.01884786        0.00501526        0.01701460
     114         -0.196518        2.000000        0.18841955        0.01715802        0.00622735        0.01432382
     115         -0.195905        2.000000        0.21548949        0.01553757        0.00846689        0.01367856
     116         -0.194503        2.000000        0.22543004        0.01266584        0.00688469        0.01535940
     117         -0.193716        2.000000        0.24819944        0.01234126        0.01085176        0.01348334
     118         -0.193075        2.000000        0.22138914        0.01799166        0.00629757        0.01448869
     119         -0.192134        2.000000        0.25294114        0.01518609        0.00799487        0.01122700
     120         -0.191791        2.000000        0.18986926        0.01998245        0.00620525        0.01371680
     121         -0.190717        2.000000        0.20497388        0.01896378        0.00727880        0.01543468
     122         -0.189868        2.000000        0.25073867        0.01521612        0.00576864        0.01269204
     123         -0.188623        2.000000        0.31583352        0.00984002        0.00750715        0.01032000
     124         -0.187969        2.000000        0.23133417        0.01581492        0.00515484        0.01660105
     125         -0.187293        2.000000        0.20595900        0.01234545        0.00680418        0.01960732
     126         -0.184681        2.000000        0.22238773        0.01580960        0.00808354        0.01484886
     127         -0.183501        2.000000        0.26364093        0.00931469        0.00735493        0.01740214
     128         -0.182366        2.000000        0.29336397        0.01215274        0.00786598        0.00863894
     129         -0.180468        2.000000        0.23352505        0.01118449        0.00672973        0.01693539
     130         -0.177591        2.000000        0.33910900        0.00814614        0.00899745        0.01018994
     131         -0.177177        2.000000        0.25504650        0.01847182        0.00936432        0.01158213
     132         -0.175658        2.000000        0.29251605        0.01437858        0.00889463        0.00732429
     133         -0.173049        2.000000        0.21068044        0.01767824        0.01051158        0.01478787
     134         -0.171990        2.000000        0.16922182        0.01710378        0.00889221        0.02081177
     135         -0.170692        2.000000        0.25844491        0.01813450        0.01119161        0.01063928
     136         -0.169716        2.000000        0.26159446        0.01930578        0.01068410        0.01068022
     137         -0.169002        2.000000        0.29977078        0.00815637        0.01768666        0.01295318
     138         -0.167699        2.000000        0.22308122        0.01650576        0.01119504        0.01391757
     139         -0.166569        2.000000        0.04107775        0.02870995        0.00230066        0.01149499
     140         -0.165508        2.000000        0.06792357        0.00264124        0.00321853        0.03561616
     141         -0.162614        2.000000        0.01899754        0.03261548        0.00148214        0.00995837
     142         -0.153053        2.000000        0.00635906        0.00381663        0.00106964        0.03609282
     143         -0.148131        2.000000        0.00386394        0.02736020        0.00097333        0.01418056
     144         -0.145986        2.000000        0.00831296        0.02867082        0.00209126        0.01326659
     145         -0.144987        2.000000        0.00600640        0.02782539        0.00143124        0.01293554
     146         -0.144526        2.000000        0.00990171        0.03146568        0.00137844        0.00887875
     147         -0.140859        2.000000        0.00963058        0.00418367        0.00205832        0.04842585
     148         -0.139900        2.000000        0.00425132        0.00966851        0.00129794        0.03182800
     149         -0.137280        2.000000        0.01023622        0.03899383        0.00314247        0.01279459
     150         -0.134367        2.000000        0.01615980        0.03922325        0.00465987        0.01222400
     151         -0.122034        2.000000        0.00345299        0.00813843        0.00169634        0.04227196
     152         -0.118872        2.000000        0.00189726        0.00068147        0.00071402        0.03572838
     153         -0.117662        2.000000        0.00518221        0.03169412        0.00244503        0.01780296
     154         -0.116423        2.000000        0.00372394        0.01796343        0.00140772        0.03317224
     155         -0.115871        2.000000        0.00281991        0.03846589        0.00105948        0.00085525
     156         -0.114146        2.000000        0.00559315        0.03727917        0.00204200        0.01250455
     157         -0.110741        2.000000        0.00334873        0.02241116        0.00225561        0.02822078
     158         -0.108770        2.000000        0.00473504        0.03761453        0.00202468        0.01476145
     159         -0.082795        2.000000        0.00353078        0.00128750        0.00099983        0.04648209
     160         -0.078200        2.000000        0.00389742        0.04687102        0.00083379        0.00173595
     161         -0.044598        0.000000        0.02857110        0.00241743        0.01396878        0.00191488
     162         -0.041429        0.000000        0.00685435        0.00735995        0.01507492        0.00658250
     163         -0.039461        0.000000        0.00537030        0.00906249        0.01349290        0.01040799
     164         -0.037135        0.000000        0.00518421        0.00771160        0.01368169        0.01172411
     165         -0.035674        0.000000        0.01201486        0.00345723        0.01328723        0.00317205
     166         -0.028879        0.000000        0.01172264        0.01967851        0.01424481        0.01145031
     167         -0.027321        0.000000        0.01457782        0.01484821        0.01177057        0.01577477
     168         -0.023776        0.000000        0.01556333        0.00875243        0.01521188        0.02595725
     169         -0.022579        0.000000        0.01417882        0.01604777        0.01537491        0.01901939
     170         -0.021915        0.000000        0.01410658        0.01554207        0.01678207        0.02036797
     171         -0.020543        0.000000        0.01513675        0.01004607        0.01731483        0.02124693
     172         -0.018740        0.000000        0.01534689        0.01977848        0.01527623        0.02357143
     173         -0.016568        0.000000        0.01303074        0.02279066        0.01624983        0.01130287
     174         -0.014831        0.000000        0.01973864        0.02555463        0.01993872        0.01306582
     175         -0.004269        0.000000        0.01026692        0.01854700        0.02287045        0.02895146
     176          0.000366        0.000000        0.01372745        0.03433354        0.02414312        0.01964367
     177          0.000812        0.000000        0.01001429        0.03230963        0.02186528        0.02332695
     178          0.004562        0.000000        0.01216247        0.02019659        0.02472489        0.03097626
     179          0.005701        0.000000        0.01122213        0.02380041        0.02403413        0.03086359
     180          0.008897        0.000000        0.01954780        0.02472209        0.03380814        0.02212244
     181          0.019923        0.000000        0.07175093        0.05328904        0.06128893        0.14036328
     182          0.020764        0.000000        0.04204113        0.06169865        0.03774551        0.06324111
     183          0.025154        0.000000        0.04122218        0.06418304        0.03919864        0.05323002
     184          0.025667        0.000000        0.01404333        0.01731369        0.00905924        0.05132485
     185          0.028836        0.000000        0.07257640        0.12934096        0.05811276        0.06182884
     186          0.032001        0.000000        0.08069678        0.08321029        0.05603504        0.08249184
     187          0.038328        0.000000        0.07070556        0.05185328        0.05481369        0.10512912
     188          0.041076        0.000000        0.07441717        0.06635902        0.05789974        0.08032066
     189          0.042363        0.000000        0.07248738        0.05739304        0.05478963        0.09946849
     190          0.043878        0.000000        0.07746802        0.09228572        0.05166498        0.07678587
     191          0.045864        0.000000        0.06861588        0.07189218        0.04789313        0.08618324
     192          0.046821        0.000000        0.06716449        0.08225908        0.04769819        0.08181895
     193          0.051457        0.000000        0.05813348        0.12635922        0.05903274        0.03507746
     194          0.052602        0.000000        0.06960446        0.07397733        0.06638582        0.10771090
     195          0.053834        0.000000        0.07102987        0.06627027        0.06025221        0.09727850
     196          0.055156        0.000000        0.06356128        0.11166878        0.07312388        0.03688552
     197          0.056026        0.000000        0.06383506        0.11143341        0.05947950        0.05496768
     198          0.057756        0.000000        0.06305513        0.11843418        0.06873089        0.05668571
     199          0.060257        0.000000        0.08103627        0.06584331        0.05154505        0.04830238
     200          0.061206        0.000000        0.05621975        0.04872278        0.03478656        0.07026245
     201          0.064389        0.000000        0.08237662        0.05446096        0.04284273        0.04483341
     202          0.065634        0.000000        0.08487364        0.06379294        0.05654123        0.08168825
     203          0.067248        0.000000        0.07588271        0.04060968        0.05870549        0.06218741
     204          0.068075        0.000000        0.08516110        0.03963076        0.04326063        0.06232602
     205          0.068302        0.000000        0.08157972        0.04413306        0.04951901        0.05386624
     206          0.069365        0.000000        0.09408490        0.04560997        0.04278082        0.04072497
     207          0.070649        0.000000        0.13297425        0.05069097        0.05554211        0.04675926
     208          0.071194        0.000000        0.08465948        0.04869105        0.04940707        0.08495017
     209          0.072090        0.000000        0.11110588        0.04067282        0.05294018        0.04392197
     210          0.073330        0.000000        0.08542960        0.04577222        0.03744729        0.05346128
