# Projected DOS for atomic kind Si at iteration step i = 0, E(Fermi) =    -0.080227 a.u.
#     MO Eigenvalue [a.u.]      Occupation                 s                py                pz                px               d-2               d-1                d0               d+1               d+2
       1         -0.501427        2.000000        0.00753912        0.00023937        0.00168187        0.00015495        0.00001681        0.00003222        0.00011714        0.00002459        0.00001255
       2         -0.483266        2.000000        0.48729137        0.00163268        0.02007368        0.00163580        0.00050469        0.00029661        0.02213545        0.00018025        0.00040243
       3         -0.482657        2.000000        0.15992612        0.00223988        0.00772513        0.00296260        0.00044448        0.00019072        0.00801197        0.00022726        0.00021477
       4         -0.481267        2.000000        0.01646587        0.00180046        0.00170375        0.00094559        0.00006090        0.00014031        0.00080942        0.00006404        0.00012719
       5         -0.476853        2.000000        0.00701346        0.00147732        0.00087288        0.00125575        0.00008715        0.00010077        0.00022961        0.00008606        0.00012993
       6         -0.475303        2.000000        0.00784029        0.00228710        0.00092162        0.00242804        0.00020652        0.00011723        0.00011974        0.00014233        0.00018780
       7         -0.472802        2.000000        0.00922323        0.00353029        0.00082253        0.00189359        0.00018353        0.00019034        0.00010791        0.00010117        0.00028526
       8         -0.468041        2.000000        0.01296435        0.00211526        0.00073201        0.00491530        0.00042760        0.00012259        0.00015692        0.00019106        0.00018229
       9         -0.464903        2.000000        0.49418236        0.13441459        0.01451371        0.08796181        0.01103765        0.00678864        0.00764442        0.00405868        0.01667721
      10         -0.462456        2.000000        0.49587243        0.13549648        0.00918075        0.08891063        0.01096674        0.00645050        0.00887222        0.00456127        0.01596203
      11         -0.460671        2.000000        0.49467002        0.07232295        0.01250200        0.15110773        0.01823068        0.00321099        0.00671015        0.00799920        0.00846096
      12         -0.458957        2.000000        0.49491789        0.08385023        0.01169113        0.14346473        0.01717032        0.00475975        0.00702105        0.00646381        0.01087911
      13         -0.457190        2.000000        0.49577722        0.08703484        0.01000388        0.14156280        0.01658489        0.00421024        0.00679834        0.00766820        0.01137858
      14         -0.454293        2.000000        0.49849941        0.16188125        0.00841523        0.07210847        0.00905458        0.00828169        0.00701626        0.00317658        0.01972379
      15         -0.440914        2.000000        0.00171091        0.00127160        0.00049621        0.00055314        0.00013797        0.00022766        0.00013574        0.00014077        0.00012848
      16         -0.436620        2.000000        0.00243778        0.00091810        0.00052199        0.00172262        0.00019823        0.00016871        0.00016074        0.00021312        0.00022193
      17         -0.435200        2.000000        0.00130582        0.00042082        0.00036362        0.00125854        0.00010733        0.00011442        0.00012256        0.00023940        0.00012143
      18         -0.433352        2.000000        0.00308042        0.00168478        0.00035750        0.00136615        0.00025204        0.00016694        0.00014378        0.00017678        0.00022870
      19         -0.430942        2.000000        0.00471359        0.00269547        0.00033867        0.00184498        0.00042804        0.00022339        0.00013887        0.00021642        0.00034113
      20         -0.429981        2.000000        0.00326138        0.00117884        0.00064461        0.00185127        0.00032643        0.00028176        0.00019082        0.00030416        0.00029437
      21         -0.428569        2.000000        0.00483608        0.00229220        0.00044178        0.00259392        0.00036857        0.00029774        0.00019040        0.00025215        0.00041137
      22         -0.425195        2.000000        0.03414078        0.01349248        0.00050630        0.01525017        0.00294369        0.00081388        0.00024890        0.00131516        0.00289432
      23         -0.423382        2.000000        0.36584036        0.13709761        0.00209957        0.15659418        0.03086582        0.01004536        0.00083360        0.01221057        0.03090208
      24         -0.421512        2.000000        0.03617416        0.01897018        0.00047808        0.01059715        0.00295291        0.00152885        0.00021551        0.00075305        0.00311595
      25         -0.420792        2.000000        0.38721100        0.14716311        0.00128016        0.16806045        0.02917082        0.01116182        0.00100106        0.01376381        0.03747355
      26         -0.419777        2.000000        0.36093632        0.15879889        0.00127657        0.12451284        0.03343126        0.01191044        0.00070769        0.00903377        0.03193723
      27         -0.417375        2.000000        0.39756711        0.18432521        0.00222698        0.11371384        0.03065354        0.01483698        0.00107500        0.00940845        0.05256390
      28         -0.417337        2.000000        0.40544135        0.17676075        0.00121711        0.13097896        0.03980696        0.01528759        0.00058581        0.00898904        0.03817227
      29         -0.415592        2.000000        0.40324757        0.09516923        0.00081519        0.19189593        0.06498432        0.00829386        0.00146193        0.01582821        0.02992415
      30         -0.413684        2.000000        0.39651609        0.11425335        0.00090072        0.19369354        0.04069569        0.00879200        0.00145203        0.01452094        0.03728696
      31         -0.413554        2.000000        0.40836221        0.18010126        0.00172449        0.09946041        0.02938105        0.01610621        0.00123102        0.00830689        0.06468191
      32         -0.410405        2.000000        0.40761217        0.10159275        0.00180857        0.17223829        0.06320244        0.00775499        0.00114923        0.01652775        0.04117617
      33         -0.377388        2.000000        0.00612175        0.00281346        0.00237228        0.00652666        0.00020958        0.00029040        0.00058849        0.00051865        0.00007515
      34         -0.375452        2.000000        0.00593226        0.00314167        0.00249240        0.00674548        0.00014157        0.00038787        0.00062833        0.00057206        0.00008200
      35         -0.373095        2.000000        0.01105531        0.01405597        0.00481161        0.00167884        0.00021064        0.00135994        0.00114549        0.00034474        0.00053799
      36         -0.366500        2.000000        0.00649050        0.00401341        0.00318404        0.00304864        0.00059549        0.00087824        0.00069455        0.00087749        0.00036542
      37         -0.363980        2.000000        0.01574540        0.00820470        0.00565783        0.01008448        0.00088608        0.00150002        0.00116264        0.00130364        0.00063422
      38         -0.363590        2.000000        0.06480067        0.02489948        0.01477366        0.06002471        0.00338568        0.00327342        0.00379694        0.00692893        0.00113075
      39         -0.363151        2.000000        0.26523260        0.09027359        0.03985308        0.24837247        0.01038396        0.01275602        0.01126889        0.02604406        0.00343511
      40         -0.361919        2.000000        0.12370367        0.09508480        0.02127897        0.07055402        0.00278809        0.01053874        0.00657885        0.00738075        0.00348437
      41         -0.360939        2.000000        0.14024703        0.18040482        0.02263419        0.00545916        0.00126051        0.01840089        0.00740181        0.00164245        0.00628369
      42         -0.360748        2.000000        0.14592410        0.06884291        0.02500179        0.12260102        0.00394322        0.00832137        0.00722780        0.01401306        0.00308706
      43         -0.359299        2.000000        0.06830114        0.06252865        0.01527685        0.01396203        0.00242461        0.00885416        0.00372047        0.00236190        0.00484546
      44         -0.359009        2.000000        0.06647287        0.02819546        0.01168260        0.05325237        0.00276504        0.00362783        0.00345582        0.00730966        0.00144596
      45         -0.354703        2.000000        0.28003470        0.12876622        0.06038287        0.12825946        0.02716898        0.01892548        0.01662398        0.02020376        0.02151173
      46         -0.352338        2.000000        0.29718665        0.15493984        0.07142198        0.10182587        0.01643410        0.02729967        0.01685938        0.01692741        0.03661152
      47         -0.351462        2.000000        0.29452744        0.09559194        0.06092667        0.17546591        0.03769773        0.01465031        0.02052137        0.02635501        0.01307054
      48         -0.351059        2.000000        0.29903902        0.12896041        0.07269403        0.12928673        0.02708534        0.02012441        0.01833958        0.02282886        0.02712017
      49         -0.349274        2.000000        0.30313418        0.15401406        0.05590276        0.12772724        0.02456951        0.01963209        0.02288453        0.01754277        0.03335470
      50         -0.347667        2.000000        0.30033863        0.13656416        0.06284975        0.13429412        0.02873653        0.01736722        0.02337562        0.01843156        0.02974948
      51         -0.343581        2.000000        0.03439956        0.00927020        0.07271865        0.01096619        0.00229329        0.00209113        0.00645881        0.00315218        0.00205638
      52         -0.339177        2.000000        0.02427824        0.00590318        0.04968575        0.00448152        0.00100966        0.00373151        0.00448076        0.00193675        0.00143068
      53         -0.335346        2.000000        0.03369410        0.00504466        0.08663138        0.00471531        0.00132798        0.00324878        0.00541304        0.00358685        0.00142460
      54         -0.333525        2.000000        0.03458283        0.00398406        0.08130255        0.00783911        0.00247781        0.00231655        0.00617428        0.00460029        0.00126416
      55         -0.332255        2.000000        0.10423087        0.01759380        0.24371871        0.01155422        0.00412801        0.00796745        0.01054681        0.00932583        0.00437885
      56         -0.330813        2.000000        0.07510190        0.01732373        0.13218654        0.00835554        0.00237497        0.01017943        0.00959636        0.00496297        0.00528520
      57         -0.325323        2.000000        0.09048896        0.01279560        0.17522228        0.01465000        0.00410072        0.00715637        0.01160260        0.00983595        0.00383149
      58         -0.322132        2.000000        0.17280967        0.02993882        0.25834627        0.04077515        0.01156791        0.00924351        0.01804011        0.01661858        0.00655969
      59         -0.319995        2.000000        0.15806624        0.02409986        0.21527749        0.03671758        0.00987517        0.00955655        0.01481148        0.01646608        0.00617203
      60         -0.319752        2.000000        0.15158419        0.05028044        0.23594301        0.00413435        0.00079396        0.02014149        0.01568894        0.00222317        0.01389373
      61         -0.318474        2.000000        0.14924602        0.01932997        0.20717635        0.04165972        0.01077481        0.00770665        0.01557982        0.01515857        0.00483603
      62         -0.317095        2.000000        0.12777751        0.02742023        0.17596781        0.02377418        0.00677512        0.00982453        0.01254678        0.00842960        0.00724601
      63         -0.315352        2.000000        0.13049780        0.02607271        0.17253397        0.03110425        0.00701590        0.00977827        0.01554660        0.00938801        0.00660496
      64         -0.311921        2.000000        0.08729801        0.00905122        0.24951197        0.00473348        0.00063091        0.00318807        0.00742348        0.00080529        0.00204472
      65         -0.243191        2.000000        0.00498973        0.10153633        0.35318936        0.16954984        0.00166714        0.00384953        0.01578543        0.00441781        0.00436253
      66         -0.240756        2.000000        0.00437273        0.09919171        0.37817929        0.19531848        0.00383456        0.00318034        0.01672487        0.00465698        0.00207129
      67         -0.240141        2.000000        0.00593340        0.22130438        0.35441038        0.05353299        0.00477764        0.00464951        0.01772454        0.00205054        0.00260884
      68         -0.236056        2.000000        0.01112794        0.08992626        0.22584552        0.07598061        0.00842694        0.00612272        0.00877598        0.00183416        0.01081909
      69         -0.235795        2.000000        0.00970785        0.04575746        0.20201299        0.09402818        0.00796625        0.00495396        0.00726772        0.00423757        0.00868168
      70         -0.233164        2.000000        0.00442143        0.05156748        0.15161444        0.06470709        0.00582938        0.00216468        0.00742299        0.00248113        0.00369446
      71         -0.231805        2.000000        0.01512692        0.08267412        0.27784814        0.12885622        0.01392974        0.00450350        0.01023431        0.00396019        0.01318296
      72         -0.230625        2.000000        0.01291598        0.10448650        0.25604692        0.10989633        0.00763352        0.00735154        0.00981209        0.00298867        0.01602620
      73         -0.228438        2.000000        0.01312950        0.07890737        0.30788957        0.11607066        0.01138525        0.00534751        0.01306848        0.00401764        0.01261754
      74         -0.228207        2.000000        0.01011519        0.10209601        0.22667655        0.09263030        0.01038020        0.00343935        0.01069212        0.00370063        0.01051852
      75         -0.226175        2.000000        0.00886658        0.05680630        0.19120752        0.11158295        0.00902169        0.00361346        0.00875599        0.00239628        0.00984516
      76         -0.225753        2.000000        0.01146463        0.10481997        0.26705192        0.14562230        0.01495742        0.00830208        0.01902120        0.00338837        0.00792489
      77         -0.223533        2.000000        0.01402912        0.17622155        0.20611196        0.17342543        0.01623096        0.00656631        0.03977755        0.00498275        0.00687114
      78         -0.222762        2.000000        0.01091785        0.11697222        0.16626481        0.12975173        0.00872497        0.00729174        0.02391986        0.00317839        0.01298333
      79         -0.221650        2.000000        0.01168667        0.19407585        0.20712013        0.19416771        0.01194299        0.00578717        0.04107298        0.01043910        0.01074953
      80         -0.219982        2.000000        0.00949303        0.08317505        0.13494458        0.08500723        0.00763255        0.00353692        0.02656807        0.00444471        0.00501742
      81         -0.219933        2.000000        0.00503121        0.05172762        0.12536650        0.02331858        0.00338602        0.00309386        0.01325711        0.00249848        0.00554365
      82         -0.219326        2.000000        0.01643858        0.06634158        0.18053590        0.10930968        0.01257915        0.00401037        0.04199649        0.00293356        0.00713411
      83         -0.218191        2.000000        0.02315219        0.12195711        0.15447937        0.09312312        0.01437882        0.00336911        0.02128837        0.00291540        0.01282476
      84         -0.217843        2.000000        0.00768534        0.13081441        0.22637574        0.15071306        0.00631214        0.01057801        0.04392647        0.01046467        0.00955134
      85         -0.217214        2.000000        0.00783891        0.08099720        0.14569518        0.06115784        0.00701800        0.00447329        0.02644645        0.00526733        0.00404469
      86         -0.216595        2.000000        0.01171957        0.12105398        0.20755209        0.15695482        0.01142964        0.00940010        0.04732336        0.00721918        0.00716258
      87         -0.215788        2.000000        0.01459592        0.16794171        0.10269214        0.15475456        0.01374661        0.00345632        0.02013026        0.00702422        0.01401184
      88         -0.215300        2.000000        0.01608998        0.14899063        0.21920424        0.06658206        0.01134555        0.00592111        0.04607843        0.00809824        0.01251455
      89         -0.214147        2.000000        0.01452064        0.10009993        0.22525524        0.13678863        0.01394021        0.00785526        0.03749067        0.00542137        0.00974846
      90         -0.213996        2.000000        0.01914818        0.08416821        0.17862272        0.09505010        0.01470466        0.00358899        0.03696020        0.00353767        0.00717258
      91         -0.213205        2.000000        0.02777993        0.22574982        0.18996997        0.09049401        0.00800997        0.00545790        0.02453077        0.00410129        0.03163537
      92         -0.212382        2.000000        0.01868289        0.08849277        0.17616868        0.13583868        0.01540670        0.00776858        0.03449122        0.00657936        0.00902964
      93         -0.211837        2.000000        0.01832901        0.11578857        0.17151826        0.10371022        0.01436009        0.00596065        0.03739524        0.00499871        0.01101436
      94         -0.211524        2.000000        0.00883400        0.05208382        0.16221556        0.05797143        0.00591551        0.00553614        0.04640136        0.00312503        0.00834683
      95         -0.210532        2.000000        0.01530735        0.07598815        0.15055584        0.10629381        0.01592984        0.00363234        0.02524320        0.00482729        0.00945840
      96         -0.209866        2.000000        0.01227722        0.05658169        0.15790116        0.09355305        0.01088570        0.00434654        0.03435753        0.00770619        0.00892436
      97         -0.208965        2.000000        0.02073105        0.15430818        0.16311258        0.07075063        0.00911112        0.00325634        0.03356023        0.00541183        0.02006622
      98         -0.208437        2.000000        0.00980197        0.11518678        0.15751438        0.10240304        0.00797078        0.00886810        0.03279254        0.00485762        0.01478207
      99         -0.207473        2.000000        0.01755388        0.10518605        0.14078171        0.09425504        0.01214776        0.00506380        0.03015241        0.00528657        0.01029360
     100         -0.207068        2.000000        0.00912372        0.07038968        0.16706676        0.03876950        0.00646980        0.00581930        0.03852348        0.00357396        0.00923554
     101         -0.206847        2.000000        0.02588225        0.08468281        0.18033699        0.15625486        0.02141163        0.00492422        0.01974253        0.00254331        0.01843059
     102         -0.204999        2.000000        0.02196590        0.12317578        0.15032864        0.06940439        0.00678733        0.00420161        0.02629173        0.00311226        0.02528127
     103         -0.204593        2.000000        0.01293025        0.11267421        0.19910173        0.08593739        0.01051846        0.00599533        0.06169142        0.00568052        0.01554104
     104         -0.203739        2.000000        0.01107563        0.03830178        0.13445083        0.08261988        0.01240678        0.00438331        0.03552280        0.00252102        0.00615859
     105         -0.203652        2.000000        0.00960118        0.07667507        0.10773699        0.08386383        0.00722141        0.00483511        0.02531696        0.00309314        0.01338430
     106         -0.202304        2.000000        0.01056544        0.03237209        0.17892470        0.08157940        0.01118456        0.00449664        0.05435770        0.00464585        0.00556232
     107         -0.201517        2.000000        0.00675400        0.03779199        0.12469634        0.05929039        0.00722130        0.00523331        0.03789113        0.00383756        0.00403262
     108         -0.201022        2.000000        0.01059858        0.08241254        0.13201732        0.11985698        0.01373924        0.00704268        0.02425705        0.00434540        0.01338735
     109         -0.200370        2.000000        0.00648417        0.06691470        0.17925694        0.03916408        0.00620932        0.00863734        0.03885647        0.00598896        0.00909764
     110         -0.199252        2.000000        0.01111641        0.06315320        0.19298910        0.06776907        0.00779900        0.00635734        0.06217910        0.00251708        0.01193812
     111         -0.198633        2.000000        0.01012056        0.03882469        0.15899719        0.05720598        0.00879126        0.00619977        0.04383311        0.00163161        0.00745077
     112         -0.198412        2.000000        0.00644154        0.11033088        0.13174367        0.06265569        0.01285936        0.00760176        0.02551536        0.00579602        0.01002821
     113         -0.197759        2.000000        0.00451185        0.05574974        0.14764960        0.07881704        0.00886931        0.00747091        0.03251826        0.00373666        0.00982497
     114         -0.196598        2.000000        0.00474184        0.03270060        0.07770890        0.03715627        0.00475918        0.00258273        0.01620273        0.00287875        0.00558405
     115         -0.196338        2.000000        0.00535156        0.11590223        0.12927441        0.08053451        0.01580021        0.00659224        0.01980825        0.00723198        0.00892011
     116         -0.195671        2.000000        0.00812085        0.05471777        0.14701623        0.05551869        0.00790612        0.00642687        0.03897558        0.00492929        0.00798263
     117         -0.194946        2.000000        0.00391843        0.06007308        0.08182514        0.04805818        0.00646416        0.00386570        0.01798907        0.00387617        0.00746424
     118         -0.194570        2.000000        0.00843551        0.04660145        0.17763666        0.08087647        0.00863947        0.00774172        0.05197579        0.00513938        0.00814523
     119         -0.192955        2.000000        0.00851805        0.11489537        0.16696540        0.03481558        0.01526317        0.00518424        0.03784506        0.00981443        0.00758963
     120         -0.192481        2.000000        0.00620219        0.07863475        0.16696279        0.07066471        0.01186777        0.00820150        0.05172137        0.00690090        0.00779600
     121         -0.191810        2.000000        0.01551243        0.08409656        0.20977252        0.12949789        0.01444090        0.01051742        0.04215142        0.00698139        0.01846369
     122         -0.190848        2.000000        0.00538127        0.08682053        0.14939133        0.06018671        0.01274337        0.00706603        0.03481551        0.00732510        0.00757537
     123         -0.190133        2.000000        0.00219033        0.02249134        0.05177208        0.02369431        0.00279741        0.00222094        0.01271590        0.00186339        0.00374080
     124         -0.189424        2.000000        0.00596933        0.07101326        0.10094201        0.04545174        0.00874481        0.00546398        0.02229816        0.00348925        0.00824580
     125         -0.187567        2.000000        0.00299095        0.01676073        0.07270560        0.02172851        0.00312196        0.00305586        0.02073235        0.00260997        0.00279634
     126         -0.186542        2.000000        0.00497548        0.08651933        0.13338036        0.03653384        0.01342252        0.00603347        0.02991273        0.00680215        0.00379834
     127         -0.184040        2.000000        0.00371601        0.01573644        0.07317726        0.03982783        0.00530975        0.00398284        0.01623198        0.00254645        0.00360816
     128         -0.182566        2.000000        0.00225999        0.02443542        0.05982104        0.01625267        0.00339450        0.00201348        0.01583461        0.00275249        0.00271232
     129         -0.181417        2.000000        0.00239118        0.01853862        0.07323479        0.03624986        0.00478686        0.00364707        0.01776057        0.00280523        0.00358005
     130         -0.178873        2.000000        0.00340528        0.01237953        0.07878497        0.02949436        0.00511501        0.00275473        0.02249099        0.00231485        0.00198096
     131         -0.177750        2.000000        0.00307446        0.02610826        0.06485022        0.01720980        0.00241725        0.00357870        0.01655380        0.00230127        0.00425778
     132         -0.176186        2.000000        0.00294446        0.01496930        0.06768937        0.01101101        0.00191073        0.00294574        0.02151945        0.00137359        0.00346038
     133         -0.175424        2.000000        0.00123392        0.00976874        0.04047240        0.01091924        0.00219447        0.00135838        0.01089430        0.00171207        0.00127119
     134         -0.172925        2.000000        0.00174716        0.01076188        0.04816881        0.00946097        0.00235504        0.00181805        0.01328941        0.00206974        0.00114418
     135         -0.172345        2.000000        0.00075591        0.00782532        0.02441458        0.00660182        0.00100431        0.00147901        0.00586348        0.00091171        0.00083152
     136         -0.169814        2.000000        0.00142016        0.02054499        0.03083348        0.01089681        0.00045263        0.00141363        0.00927769        0.00076275        0.00191534
     137         -0.167947        2.000000        0.00116562        0.03786936        0.03768541        0.06751582        0.00218585        0.00231292        0.01109291        0.00279201        0.00196749
     138         -0.167170        2.000000        0.00052417        0.00644715        0.02214614        0.01236379        0.00106753        0.00111693        0.00472051        0.00107301        0.00074910
     139         -0.164224        2.000000        0.00182689        0.45484979        0.02560607        0.37967808        0.01015736        0.01565283        0.00363387        0.01585325        0.00874832
     140         -0.162293        2.000000        0.00169308        0.17359590        0.03055674        0.61792863        0.01035507        0.00845799        0.00681553        0.02400580        0.00739773
     141         -0.160507        2.000000        0.00223203        0.62696020        0.02423149        0.20924435        0.00576562        0.02244731        0.00327449        0.01112410        0.01150392
     142         -0.148917        2.000000        0.00160869        0.08431039        0.01166278        0.73876799        0.07667081        0.00365412        0.00152318        0.02644038        0.01052484
     143         -0.145728        2.000000        0.00147775        0.51448453        0.01523959        0.30299833        0.03061928        0.01598279        0.00202996        0.01120100        0.05683536
     144         -0.143397        2.000000        0.00098940        0.42105961        0.01538258        0.37348280        0.03730906        0.01459368        0.00276005        0.01445618        0.04678417