# Projected DOS for atomic kind Si at iteration step i = 0, E(Fermi) =    -0.078831 a.u.
#     MO Eigenvalue [a.u.]      Occupation                 s                py                pz                px               d-2               d-1                d0               d+1               d+2
       1         -0.500782        2.000000        0.00907260        0.00029603        0.00161979        0.00017311        0.00002056        0.00003800        0.00011654        0.00002575        0.00001615
       2         -0.484402        2.000000        0.65337953        0.00423660        0.02656981        0.00306389        0.00094546        0.00051288        0.03154970        0.00028318        0.00096808
       3         -0.482728        2.000000        0.00650142        0.00139489        0.00123551        0.00236373        0.00019527        0.00009588        0.00024874        0.00015372        0.00008298
       4         -0.480014        2.000000        0.00499469        0.00217954        0.00110639        0.00077386        0.00005239        0.00015299        0.00018686        0.00006002        0.00016961
       5         -0.475999        2.000000        0.00718837        0.00115133        0.00084722        0.00278460        0.00019653        0.00008559        0.00014694        0.00015623        0.00011746
       6         -0.474619        2.000000        0.01058540        0.00308880        0.00089243        0.00242805        0.00023170        0.00014384        0.00016089        0.00011524        0.00029297
       7         -0.472747        2.000000        0.00808911        0.00392443        0.00076589        0.00087717        0.00008822        0.00018537        0.00011912        0.00005456        0.00027895
       8         -0.467979        2.000000        0.10581570        0.02555549        0.00283272        0.02300146        0.00257179        0.00142013        0.00144137        0.00080168        0.00326594
       9         -0.467273        2.000000        0.40541255        0.11701617        0.01196066        0.06202442        0.00802090        0.00599229        0.00722689        0.00301789        0.01479880
      10         -0.462568        2.000000        0.49162132        0.12483446        0.01006983        0.10063605        0.01252340        0.00553866        0.00897686        0.00510590        0.01474315
      11         -0.461489        2.000000        0.49271961        0.05753590        0.01138975        0.16797379        0.01935277        0.00274650        0.00825468        0.00847099        0.00667525
      12         -0.460951        2.000000        0.49959265        0.08865475        0.01258027        0.13999648        0.01729502        0.00473807        0.00802289        0.00587585        0.01160244
      13         -0.457698        2.000000        0.49724768        0.10286365        0.00986490        0.12835141        0.01538199        0.00458300        0.00727668        0.00610043        0.01390204
      14         -0.455101        2.000000        0.49898652        0.16387942        0.00880349        0.07252353        0.00900952        0.00812537        0.00740150        0.00351095        0.01950152
      15         -0.440103        2.000000        0.00158761        0.00126504        0.00049746        0.00058011        0.00013793        0.00022726        0.00012945        0.00013576        0.00011845
      16         -0.436184        2.000000        0.00236006        0.00061885        0.00049079        0.00193740        0.00016701        0.00014413        0.00016145        0.00023642        0.00022988
      17         -0.434953        2.000000        0.00235472        0.00081927        0.00037623        0.00189223        0.00019512        0.00014709        0.00013098        0.00022411        0.00020261
      18         -0.432245        2.000000        0.00397542        0.00199870        0.00034236        0.00178883        0.00031868        0.00019874        0.00013656        0.00018423        0.00032029
      19         -0.430972        2.000000        0.00783634        0.00417914        0.00047773        0.00291096        0.00067826        0.00032937        0.00020430        0.00029315        0.00062037
      20         -0.430039        2.000000        0.00382337        0.00178393        0.00045951        0.00210138        0.00029066        0.00033469        0.00015969        0.00020191        0.00037839
      21         -0.428904        2.000000        0.00264093        0.00155589        0.00054272        0.00108955        0.00030564        0.00022901        0.00016614        0.00028036        0.00022303
      22         -0.425372        2.000000        0.16707141        0.06149341        0.00090792        0.07661483        0.01524653        0.00363741        0.00041746        0.00558321        0.01376219
      23         -0.424567        2.000000        0.23994941        0.08364098        0.00143114        0.11054099        0.02190981        0.00635035        0.00048699        0.00788215        0.01964686
      24         -0.422218        2.000000        0.37760221        0.16637046        0.00176987        0.14557225        0.03021893        0.01330518        0.00052358        0.01088528        0.03282910
      25         -0.419712        2.000000        0.06448074        0.02772971        0.00064579        0.02591341        0.00518341        0.00207594        0.00020061        0.00167624        0.00599813
      26         -0.419150        2.000000        0.34504321        0.16016255        0.00104311        0.12068265        0.02850614        0.01177834        0.00083231        0.00920832        0.03026569
      27         -0.418734        2.000000        0.39206583        0.18145016        0.00207320        0.11310520        0.02724477        0.01497072        0.00059264        0.00818926        0.05478611
      28         -0.417233        2.000000        0.39878523        0.15278576        0.00115486        0.15224788        0.03873965        0.01281955        0.00131668        0.00937820        0.04232689
      29         -0.416367        2.000000        0.40518985        0.09722694        0.00087943        0.19704220        0.06389197        0.00652548        0.00069888        0.01658178        0.03227524
      30         -0.414495        2.000000        0.40268974        0.13840309        0.00124414        0.16814640        0.04813864        0.00956066        0.00133306        0.01364545        0.03296398
      31         -0.413659        2.000000        0.40674730        0.15737586        0.00151345        0.12838224        0.03245433        0.01227426        0.00071203        0.01069725        0.06438242
      32         -0.412180        2.000000        0.40853568        0.11805163        0.00142650        0.15389889        0.06212644        0.00995775        0.00141395        0.01286231        0.04527934
      33         -0.377556        2.000000        0.00545336        0.00222288        0.00196434        0.00650030        0.00023820        0.00018072        0.00047621        0.00056289        0.00005847
      34         -0.374703        2.000000        0.00658816        0.00308254        0.00272066        0.00761787        0.00016449        0.00042082        0.00076029        0.00061386        0.00010996
      35         -0.372574        2.000000        0.01856826        0.02405433        0.00830078        0.00160446        0.00034466        0.00220005        0.00175616        0.00058188        0.00075223
      36         -0.367351        2.000000        0.01443660        0.00697886        0.00623848        0.01126850        0.00094346        0.00123002        0.00126195        0.00162257        0.00044346
      37         -0.364531        2.000000        0.01882932        0.00743801        0.00585718        0.01517653        0.00118439        0.00143280        0.00145327        0.00203292        0.00063694
      38         -0.364406        2.000000        0.26896634        0.15461362        0.04039321        0.19487443        0.00829550        0.01825941        0.01297385        0.01861597        0.00788154
      39         -0.362500        2.000000        0.08760889        0.06410514        0.01722453        0.04613284        0.00295640        0.00770848        0.00460579        0.00601062        0.00300660
      40         -0.361758        2.000000        0.16175777        0.11648535        0.02985425        0.08686965        0.00446148        0.01297234        0.00838012        0.01090420        0.00603801
      41         -0.361058        2.000000        0.14552319        0.05681578        0.02145904        0.14267854        0.00610916        0.00683758        0.00689891        0.01453993        0.00198519
      42         -0.360403        2.000000        0.10623584        0.09649511        0.01517283        0.04925604        0.00244310        0.01007666        0.00514418        0.00458821        0.00379232
      43         -0.359948        2.000000        0.06581762        0.05721059        0.01030824        0.03160523        0.00246626        0.00606990        0.00341082        0.00341360        0.00244682
      44         -0.357569        2.000000        0.02120874        0.01207916        0.00646195        0.00862526        0.00139718        0.00195047        0.00156408        0.00188415        0.00184220
      45         -0.354898        2.000000        0.28466898        0.10875312        0.05731627        0.15147749        0.03555711        0.01462280        0.01719318        0.02469354        0.01607523
      46         -0.352233        2.000000        0.29212148        0.13304107        0.05688263        0.14139425        0.02705291        0.02001657        0.01822726        0.02303930        0.02342316
      47         -0.351540        2.000000        0.28062049        0.14031682        0.07931241        0.11804430        0.01875752        0.02217480        0.01546479        0.01818148        0.03184648
      48         -0.351319        2.000000        0.30323579        0.16516980        0.06171147        0.11409313        0.01910194        0.02369208        0.01961428        0.01591837        0.03751406
      49         -0.348793        2.000000        0.29874117        0.12535841        0.06179275        0.15557564        0.03279038        0.01514885        0.02105022        0.02137685        0.02429006
      50         -0.346637        2.000000        0.28909651        0.13592750        0.05966136        0.13713342        0.02812755        0.01822305        0.02093040        0.01661011        0.02883299
      51         -0.343195        2.000000        0.06406614        0.02168794        0.06743981        0.02913072        0.00641750        0.00404352        0.00731038        0.00536134        0.00416757
      52         -0.337296        2.000000        0.02789771        0.00457479        0.07256824        0.00466278        0.00137196        0.00320855        0.00540305        0.00321080        0.00139838
      53         -0.334571        2.000000        0.04464409        0.01371395        0.10169123        0.00468246        0.00084258        0.00684171        0.00685829        0.00174532        0.00333987
      54         -0.333273        2.000000        0.02171401        0.00314261        0.05352029        0.00516467        0.00144817        0.00154198        0.00415043        0.00246919        0.00092605
      55         -0.331061        2.000000        0.06464488        0.00976587        0.13591146        0.01115353        0.00406671        0.00328830        0.00812373        0.00861331        0.00252296
      56         -0.328874        2.000000        0.07527494        0.01806143        0.15446114        0.00895402        0.00196140        0.00966272        0.00922794        0.00339102        0.00507814
      57         -0.325705        2.000000        0.05343383        0.00664775        0.11148687        0.01070165        0.00289562        0.00390764        0.00686773        0.00649243        0.00203390
      58         -0.322332        2.000000        0.15929456        0.03236682        0.22501460        0.03389089        0.00983892        0.01257354        0.01551561        0.01389187        0.00719306
      59         -0.320076        2.000000        0.15398956        0.04115846        0.19678657        0.02615811        0.00672807        0.01357002        0.01747797        0.00905068        0.01115715
      60         -0.318306        2.000000        0.14523458        0.02582083        0.19501973        0.04153856        0.01019350        0.00629519        0.01584303        0.01612969        0.00599707
      61         -0.317001        2.000000        0.15130244        0.02222963        0.23013094        0.03777191        0.00960676        0.00946880        0.01528244        0.01413158        0.00610704
      62         -0.314747        2.000000        0.17097049        0.04471229        0.24044811        0.02538683        0.00648682        0.01676360        0.01764911        0.01100139        0.01257865
      63         -0.313784        2.000000        0.17079833        0.03237322        0.25776085        0.03705918        0.00877238        0.01460463        0.01884315        0.01226069        0.00931888
      64         -0.311251        2.000000        0.09727952        0.00520057        0.29366838        0.00902434        0.00159195        0.00206504        0.00769641        0.00237262        0.00119130
      65         -0.243601        2.000000        0.00551242        0.10433033        0.36603949        0.19134089        0.00447658        0.00490673        0.01932216        0.00553629        0.00441057
      66         -0.241735        2.000000        0.00447534        0.09561625        0.36887782        0.16878227        0.00185576        0.00318844        0.01695807        0.00439003        0.00333491
      67         -0.238405        2.000000        0.00493528        0.20283811        0.36051106        0.05738187        0.00348749        0.00446948        0.01785780        0.00237939        0.00221682
      68         -0.236502        2.000000        0.01148803        0.06997432        0.25095315        0.11172648        0.00797087        0.00739016        0.00829438        0.00434620        0.01365176
      69         -0.235281        2.000000        0.00789995        0.05197930        0.18359209        0.05452568        0.00779732        0.00445244        0.00938654        0.00313112        0.00602771
      70         -0.233688        2.000000        0.00904141        0.06318858        0.29177366        0.13471471        0.01086524        0.00343007        0.01418623        0.00479336        0.00737956
      71         -0.232604        2.000000        0.00921840        0.05093785        0.15996470        0.08316022        0.00739220        0.00369371        0.00968626        0.00276451        0.00670155
      72         -0.230223        2.000000        0.01312768        0.09354102        0.27583214        0.14268898        0.00741394        0.00938211        0.01203315        0.00160186        0.01881324
      73         -0.229040        2.000000        0.00984888        0.07782657        0.23584781        0.09914989        0.01077282        0.00342815        0.00870602        0.00471122        0.00834898
      74         -0.227935        2.000000        0.01097303        0.09981877        0.24597102        0.09235801        0.00818657        0.00611160        0.01036477        0.00252462        0.01361624
      75         -0.226745        2.000000        0.00984481        0.08666680        0.22594930        0.17470620        0.01208993        0.00881429        0.02401482        0.00177975        0.00873419
      76         -0.226274        2.000000        0.01669090        0.08164893        0.30842570        0.17912594        0.01790836        0.00628649        0.01293063        0.00332406        0.01414137
      77         -0.224692        2.000000        0.01170623        0.12031511        0.23584189        0.13550965        0.01701588        0.00581913        0.02826363        0.00437966        0.00407656
      78         -0.221369        2.000000        0.00861400        0.08436898        0.15650885        0.05198663        0.00540035        0.00488304        0.02272895        0.00323352        0.00809661
      79         -0.221187        2.000000        0.01732663        0.21578394        0.13077184        0.22436496        0.01808021        0.00992924        0.02162459        0.00373756        0.01621813
      80         -0.220294        2.000000        0.01035923        0.17039502        0.17217582        0.12773748        0.00965497        0.00622540        0.03718926        0.00616159        0.00732308
      81         -0.219917        2.000000        0.02027892        0.16136199        0.18000447        0.16497811        0.01721265        0.00580157        0.03256724        0.00708972        0.01274423
      82         -0.219797        2.000000        0.01357413        0.15248425        0.21741473        0.11935051        0.01051857        0.00764757        0.03858850        0.00882292        0.01038355
      83         -0.219012        2.000000        0.00701592        0.07073680        0.14699357        0.08415435        0.00682617        0.00364360        0.01771717        0.00593845        0.00480841
      84         -0.218618        2.000000        0.02112498        0.16165151        0.20205847        0.11595610        0.01477158        0.00839399        0.03757311        0.00560064        0.01494941
      85         -0.217441        2.000000        0.01602534        0.03535031        0.09377953        0.08480284        0.01236652        0.00123954        0.01115110        0.00119052        0.00621347
      86         -0.217145        2.000000        0.01504123        0.09437378        0.14686521        0.14870798        0.01314724        0.00593586        0.03250034        0.00449794        0.00965657
      87         -0.216106        2.000000        0.01416967        0.08356486        0.16669452        0.10921314        0.01366779        0.00273601        0.04664217        0.00632099        0.00630140
      88         -0.215561        2.000000        0.02669930        0.24282772        0.14596206        0.14970135        0.01697789        0.00413735        0.02045649        0.00746714        0.02313547
      89         -0.215045        2.000000        0.00940761        0.17866064        0.18330827        0.11803104        0.00742599        0.00614139        0.03385376        0.01317437        0.01220679
      90         -0.213780        2.000000        0.01763279        0.15909223        0.17502829        0.05565590        0.00961305        0.00372812        0.02299943        0.00508849        0.01519011
      91         -0.213342        2.000000        0.01270384        0.10236538        0.16040214        0.11425863        0.01041090        0.00504930        0.03399529        0.00642302        0.00889363
      92         -0.212802        2.000000        0.02913666        0.14559312        0.20485730        0.10835736        0.01002932        0.00851758        0.03681531        0.00314957        0.02494837
      93         -0.211194        2.000000        0.01037373        0.08045713        0.18947410        0.07240734        0.00973262        0.00559879        0.04845087        0.00497294        0.00850309
      94         -0.210879        2.000000        0.01240946        0.08755150        0.13758378        0.09288070        0.01189512        0.00462671        0.03863559        0.00319039        0.00884875
      95         -0.210662        2.000000        0.01461623        0.09299335        0.17455363        0.11126774        0.01546511        0.00665102        0.02562500        0.00767968        0.01215913
      96         -0.209965        2.000000        0.02294107        0.13384803        0.20264828        0.10321795        0.01552841        0.00491340        0.03358009        0.00892283        0.02071225
      97         -0.209898        2.000000        0.01388144        0.11916737        0.14006726        0.14584653        0.01929904        0.00633804        0.01648299        0.00562056        0.01152887
      98         -0.209112        2.000000        0.01848660        0.14261243        0.17671539        0.08363819        0.01052330        0.00673302        0.03772292        0.00470327        0.01818967
      99         -0.208246        2.000000        0.01467479        0.08644513        0.16349188        0.09954874        0.01085757        0.00464522        0.04125285        0.00268983        0.01331117
     100         -0.207203        2.000000        0.01029009        0.07357067        0.12126692        0.08199632        0.00745088        0.00426932        0.02053655        0.00300277        0.01368211
     101         -0.206701        2.000000        0.01186213        0.06164863        0.14939631        0.05482158        0.00892372        0.00414641        0.02921354        0.00470941        0.01021357
     102         -0.205504        2.000000        0.01238287        0.05943961        0.11236972        0.05698722        0.00688276        0.00360643        0.02520087        0.00196798        0.01183986
     103         -0.204729        2.000000        0.00952092        0.05644060        0.21332001        0.05788287        0.00807473        0.00634914        0.06394046        0.00683682        0.00807440
     104         -0.203569        2.000000        0.00572515        0.04331951        0.17205932        0.09007811        0.00767621        0.00644847        0.03950095        0.00442545        0.00905448
     105         -0.203144        2.000000        0.00860333        0.04537478        0.16119202        0.05697447        0.00834506        0.00444449        0.04933540        0.00355568        0.00728430
     106         -0.202392        2.000000        0.01066842        0.06145662        0.12568752        0.05601810        0.00730000        0.00385375        0.04057815        0.00472524        0.01078371
     107         -0.200778        2.000000        0.00917331        0.08018665        0.19171054        0.09252798        0.01000880        0.01040197        0.03358895        0.00539432        0.01289907
     108         -0.200393        2.000000        0.01490679        0.10794945        0.14758598        0.10363321        0.01387235        0.00592408        0.03185869        0.00383025        0.01665580
     109         -0.199674        2.000000        0.00435080        0.07259747        0.15583741        0.06014038        0.00788075        0.00872581        0.05527035        0.00500320        0.00511069
     110         -0.198962        2.000000        0.00589124        0.04436327        0.13712540        0.04849969        0.00717365        0.00381336        0.04023310        0.00402922        0.00703686
     111         -0.198505        2.000000        0.00493099        0.04031916        0.13553401        0.06070871        0.00459274        0.00802641        0.02882060        0.00357380        0.00876158
     112         -0.198134        2.000000        0.00621067        0.04431514        0.09267989        0.03942944        0.00741031        0.00419790        0.02015136        0.00319986        0.00475730
     113         -0.197361        2.000000        0.00737728        0.08310410        0.19764193        0.07879349        0.01386800        0.00739488        0.04531388        0.00625176        0.01067685
     114         -0.197032        2.000000        0.00492136        0.04993617        0.07749149        0.04497234        0.00539316        0.00369748        0.01727329        0.00240794        0.00698849
     115         -0.196117        2.000000        0.00947194        0.08729258        0.18199003        0.09931106        0.01592184        0.00773124        0.03560943        0.00706335        0.01149065
     116         -0.195006        2.000000        0.00453181        0.02212676        0.09020871        0.03579717        0.00524042        0.00307354        0.02031981        0.00401848        0.00461791
     117         -0.193661        2.000000        0.00609019        0.08264655        0.10137596        0.03145225        0.00909746        0.00339526        0.02456618        0.00546943        0.00674804
     118         -0.193271        2.000000        0.00741622        0.04968219        0.19759969        0.07523764        0.00857189        0.00935306        0.06431245        0.00604751        0.00638199
     119         -0.192196        2.000000        0.00740215        0.08533452        0.12958619        0.03569841        0.01249513        0.00344602        0.02757750        0.00736404        0.00723889
     120         -0.192116        2.000000        0.00542935        0.04953551        0.17038176        0.04850203        0.00993948        0.00796821        0.04194201        0.00631997        0.00454816
     121         -0.190526        2.000000        0.00399681        0.03142035        0.09430062        0.06112982        0.00525190        0.00607375        0.02214722        0.00398807        0.00627131
     122         -0.189791        2.000000        0.00496204        0.08485778        0.16800164        0.04764973        0.01248707        0.00623270        0.03672423        0.00656451        0.00760426
     123         -0.189413        2.000000        0.00582233        0.05011724        0.14978603        0.03148451        0.00961939        0.00531446        0.03812812        0.00649352        0.00413378
     124         -0.188015        2.000000        0.00628947        0.04493949        0.15374513        0.03121454        0.00630261        0.00455719        0.04055925        0.00434678        0.00836245
     125         -0.187314        2.000000        0.00264540        0.01662446        0.06319113        0.02009264        0.00263855        0.00325172        0.01923098        0.00237080        0.00264820
     126         -0.184748        2.000000        0.00201386        0.03924774        0.07120633        0.01491607        0.00556039        0.00292962        0.01664785        0.00351634        0.00151014
     127         -0.183454        2.000000        0.00288019        0.01518541        0.07509014        0.02978373        0.00433667        0.00299093        0.01773089        0.00278185        0.00273508
     128         -0.182698        2.000000        0.00443635        0.03968021        0.11412587        0.02824888        0.00660891        0.00394016        0.03295437        0.00425168        0.00446704
     129         -0.180726        2.000000        0.00203633        0.01696475        0.06881102        0.02568727        0.00399641        0.00302137        0.01765648        0.00280931        0.00280684
     130         -0.178010        2.000000        0.00211354        0.01308683        0.07602236        0.02999747        0.00423024        0.00315550        0.02188156        0.00249770        0.00181703
     131         -0.177089        2.000000        0.00222690        0.02270183        0.04915228        0.01311128        0.00249438        0.00178250        0.01278882        0.00189459        0.00257212
     132         -0.175377        2.000000        0.00385822        0.01926513        0.10532263        0.01490638        0.00267250        0.00416150        0.03412913        0.00233929        0.00431236
     133         -0.172758        2.000000        0.00117819        0.01861586        0.04764612        0.01402026        0.00176423        0.00204364        0.01433822        0.00218309        0.00123725
     134         -0.172236        2.000000        0.00020801        0.00885575        0.01753829        0.00526044        0.00098785        0.00112501        0.00219329        0.00121816        0.00074338
     135         -0.171570        2.000000        0.00060506        0.00796789        0.02958142        0.00615331        0.00129699        0.00140521        0.00787501        0.00123534        0.00060589
     136         -0.169675        2.000000        0.00164603        0.03104880        0.03097184        0.02009670        0.00155158        0.00167967        0.00861332        0.00172773        0.00191594
     137         -0.168661        2.000000        0.00174211        0.02285045        0.04595199        0.10037369        0.00277102        0.00173872        0.01734961        0.00389281        0.00129779
     138         -0.167512        2.000000        0.00084360        0.04053428        0.03463340        0.03841363        0.00199888        0.00239707        0.00814694        0.00236644        0.00175519
     139         -0.165704        2.000000        0.00199530        0.51487302        0.02830172        0.28645300        0.00919381        0.01757931        0.00394984        0.01199907        0.01064624
     140         -0.164523        2.000000        0.00200195        0.07712344        0.03554272        0.63036692        0.01146887        0.00466389        0.00921627        0.02417515        0.00520678
     141         -0.161835        2.000000        0.00233127        0.62501962        0.02328048        0.21587650        0.00578601        0.02078749        0.00479148        0.01252258        0.01173759
     142         -0.151911        2.000000        0.00177701        0.06850680        0.01178345        0.75241193        0.07774124        0.00312720        0.00243065        0.02624563        0.00876842
     143         -0.147358        2.000000        0.00122811        0.52773683        0.01369773        0.29246377        0.03114822        0.01536290        0.00190906        0.01032852        0.05829275
     144         -0.145011        2.000000        0.00110072        0.47307263        0.02359623        0.32357420        0.03231411        0.01719179        0.00400282        0.01320381        0.05428158