# Projected DOS for atomic kind Si at iteration step i = 0, E(Fermi) =    -0.077689 a.u.
#     MO Eigenvalue [a.u.]      Occupation                 s                py                pz                px               d-2               d-1                d0               d+1               d+2
       1         -0.499992        2.000000        0.01282771        0.00025319        0.00162574        0.00013266        0.00001908        0.00003930        0.00014471        0.00002748        0.00001989
       2         -0.487181        2.000000        0.65235146        0.00383870        0.02551359        0.00218048        0.00072503        0.00046557        0.03203598        0.00028766        0.00130384
       3         -0.481417        2.000000        0.00717917        0.00253915        0.00101951        0.00199673        0.00016506        0.00015419        0.00013045        0.00013994        0.00018538
       4         -0.480304        2.000000        0.00631195        0.00187862        0.00121887        0.00214036        0.00016568        0.00012886        0.00015005        0.00013178        0.00016590
       5         -0.475880        2.000000        0.00828278        0.00162305        0.00084632        0.00310274        0.00021941        0.00008774        0.00015492        0.00013343        0.00017703
       6         -0.474095        2.000000        0.04787043        0.01596664        0.00117320        0.00784750        0.00087059        0.00073715        0.00034728        0.00031705        0.00188897
       7         -0.472438        2.000000        0.03328556        0.01198129        0.00119496        0.00524760        0.00053055        0.00038353        0.00036640        0.00027168        0.00107334
       8         -0.471041        2.000000        0.44116760        0.14200983        0.01183979        0.05527770        0.00677749        0.00722518        0.00769443        0.00258370        0.01959819
       9         -0.467836        2.000000        0.10636479        0.01956104        0.00215381        0.03153129        0.00354084        0.00073829        0.00136919        0.00155796        0.00213019
      10         -0.466290        2.000000        0.41300918        0.06095838        0.00972092        0.12910464        0.01567598        0.00249871        0.00764152        0.00674912        0.00784516
      11         -0.464918        2.000000        0.47626156        0.07074447        0.01056504        0.14681372        0.01847381        0.00381889        0.00768898        0.00639154        0.00879707
      12         -0.463224        2.000000        0.47766261        0.08821118        0.00912788        0.13276120        0.01635564        0.00439000        0.00918911        0.00587356        0.01067059
      13         -0.459871        2.000000        0.49155583        0.10035661        0.00944194        0.13137415        0.01548223        0.00438309        0.00723760        0.00619963        0.01386723
      14         -0.457680        2.000000        0.49543616        0.18203672        0.00831487        0.05486779        0.00728393        0.00887403        0.00745869        0.00262225        0.02226233
      15         -0.439234        2.000000        0.00230851        0.00175962        0.00060723        0.00086376        0.00020772        0.00028493        0.00016545        0.00017490        0.00017135
      16         -0.437019        2.000000        0.00370775        0.00087388        0.00048404        0.00297250        0.00026554        0.00019145        0.00015692        0.00029383        0.00036986
      17         -0.432863        2.000000        0.00508105        0.00162097        0.00036564        0.00317945        0.00045221        0.00013986        0.00015128        0.00028464        0.00041694
      18         -0.432144        2.000000        0.00980935        0.00423351        0.00049779        0.00499024        0.00079158        0.00040569        0.00015242        0.00041924        0.00080791
      19         -0.430446        2.000000        0.06846668        0.02910442        0.00056246        0.02851239        0.00576478        0.00194263        0.00035009        0.00179605        0.00599382
      20         -0.428952        2.000000        0.00537358        0.00216078        0.00044563        0.00284759        0.00037789        0.00040393        0.00015494        0.00025097        0.00059258
      21         -0.428278        2.000000        0.28481621        0.10050424        0.00193796        0.13133113        0.02520292        0.00600649        0.00049213        0.01006975        0.02431144
      22         -0.427337        2.000000        0.00476505        0.00253489        0.00049723        0.00202756        0.00046043        0.00030079        0.00016814        0.00030968        0.00042865
      23         -0.426429        2.000000        0.07343609        0.02415829        0.00067576        0.03634468        0.00629330        0.00204503        0.00028572        0.00226642        0.00644770
      24         -0.424699        2.000000        0.36152319        0.14868234        0.00159174        0.14726724        0.03441879        0.01151159        0.00047030        0.01013601        0.03084626
      25         -0.422587        2.000000        0.38563080        0.11117150        0.00168479        0.20103121        0.03786845        0.00719727        0.00072009        0.01525778        0.03481093
      26         -0.421453        2.000000        0.39728086        0.18937441        0.00138499        0.11902357        0.04018150        0.01519023        0.00047040        0.00880186        0.03579245
      27         -0.420192        2.000000        0.39444000        0.11746109        0.00121818        0.17244893        0.06306772        0.00823526        0.00101282        0.01452592        0.03118145
      28         -0.418794        2.000000        0.37513998        0.13247000        0.00113273        0.14071969        0.04731233        0.00997455        0.00129427        0.01064135        0.03278821
      29         -0.418388        2.000000        0.19027523        0.09700750        0.00104984        0.03747102        0.00762481        0.00805140        0.00071562        0.00324665        0.03926482
      30         -0.417698        2.000000        0.24625332        0.11291008        0.00086461        0.06969515        0.01313823        0.00870799        0.00069265        0.00448867        0.04171392
      31         -0.416507        2.000000        0.39833124        0.17209366        0.00111534        0.13419118        0.03271212        0.01303284        0.00118898        0.00828239        0.05161984
      32         -0.412556        2.000000        0.40296409        0.11588855        0.00207007        0.16528879        0.06058393        0.00861752        0.00145547        0.01330865        0.03882119
      33         -0.376376        2.000000        0.00883111        0.00454645        0.00324975        0.00918692        0.00030069        0.00052180        0.00079265        0.00062327        0.00023475
      34         -0.374004        2.000000        0.01113142        0.00532336        0.00329578        0.01223361        0.00026846        0.00051899        0.00105209        0.00100931        0.00017039
      35         -0.371824        2.000000        0.02176139        0.03122553        0.00728798        0.00106385        0.00020436        0.00269123        0.00174949        0.00029610        0.00073199
      36         -0.367226        2.000000        0.05945896        0.02161799        0.01322132        0.05727515        0.00272308        0.00290060        0.00351444        0.00632167        0.00118731
      37         -0.364858        2.000000        0.20358217        0.15504508        0.02826639        0.12174264        0.00541051        0.01526331        0.00951233        0.01294777        0.00581448
      38         -0.364543        2.000000        0.07442465        0.09350080        0.01480084        0.00586191        0.00077638        0.00939591        0.00379238        0.00174341        0.00353130
      39         -0.363535        2.000000        0.25330300        0.11380596        0.03793656        0.23098387        0.00817711        0.01351320        0.01085418        0.02274374        0.00496549
      40         -0.363213        2.000000        0.20743852        0.11853793        0.02902896        0.16564843        0.00630712        0.01211182        0.00990720        0.01724117        0.00487482
      41         -0.360811        2.000000        0.07974661        0.06077643        0.01776003        0.02689457        0.00497221        0.00805966        0.00556009        0.00398600        0.00608766
      42         -0.360481        2.000000        0.01532400        0.01693073        0.00265769        0.00307948        0.00030283        0.00219719        0.00076452        0.00065466        0.00089138
      43         -0.357298        2.000000        0.18166774        0.07345549        0.03627156        0.09756857        0.01810195        0.01155503        0.01195856        0.01299241        0.01594416
      44         -0.357010        2.000000        0.05811829        0.02358332        0.01589592        0.03141998        0.00653057        0.00313105        0.00354986        0.00507309        0.00444421
      45         -0.356080        2.000000        0.12177698        0.05934571        0.02859887        0.05263222        0.01041636        0.00822331        0.00839021        0.00862635        0.01255880
      46         -0.355615        2.000000        0.21869825        0.11655542        0.05029647        0.08332497        0.01328676        0.01816269        0.01288144        0.01237573        0.02787511
      47         -0.353849        2.000000        0.30328529        0.12277048        0.05684607        0.15005994        0.03816375        0.01729296        0.02135106        0.01961910        0.02256139
      48         -0.352925        2.000000        0.29286375        0.14278660        0.05977588        0.14147342        0.03101523        0.01897225        0.01972055        0.02030102        0.02624620
      49         -0.351738        2.000000        0.27277181        0.14775310        0.06143080        0.10493834        0.01774885        0.02277701        0.01530302        0.01475739        0.03407527
      50         -0.350587        2.000000        0.29781292        0.11874082        0.07051878        0.15125542        0.03580927        0.01412604        0.02112684        0.02263062        0.02306486
      51         -0.340729        2.000000        0.03130084        0.00702839        0.07464699        0.00848953        0.00180331        0.00266296        0.00700855        0.00356793        0.00226436
      52         -0.335789        2.000000        0.04955706        0.01419932        0.11775013        0.00315389        0.00079618        0.00850128        0.00755634        0.00086895        0.00414362
      53         -0.333754        2.000000        0.05686227        0.00564957        0.16420932        0.00787431        0.00253598        0.00212840        0.00765048        0.00480015        0.00130070
      54         -0.332529        2.000000        0.06647417        0.01014224        0.14681348        0.01259024        0.00399792        0.00596015        0.00917056        0.00767112        0.00293555
      55         -0.330813        2.000000        0.06660861        0.01230508        0.11683150        0.01137698        0.00383181        0.00649345        0.00927526        0.00650183        0.00404918
      56         -0.328875        2.000000        0.11512728        0.01883466        0.20084950        0.02774457        0.00765958        0.00760593        0.01416628        0.01372968        0.00412049
      57         -0.327988        2.000000        0.05692036        0.01730453        0.12666637        0.00310674        0.00075043        0.00777525        0.00758455        0.00193359        0.00448440
      58         -0.322343        2.000000        0.11257753        0.02729677        0.17872786        0.01913514        0.00552883        0.00980664        0.01298416        0.00654812        0.00719316
      59         -0.321695        2.000000        0.14786069        0.03149347        0.18755313        0.03607943        0.01018809        0.01156364        0.01595352        0.01045117        0.00762529
      60         -0.319805        2.000000        0.13475243        0.01840536        0.19656733        0.03470734        0.00975015        0.00596425        0.01411597        0.01506780        0.00485477
      61         -0.318765        2.000000        0.13392926        0.03282372        0.18439564        0.02487609        0.00625734        0.01147444        0.01351494        0.00907938        0.00853828
      62         -0.318352        2.000000        0.14518862        0.03146033        0.18900771        0.03520275        0.00889702        0.00938407        0.01688780        0.01300986        0.00778888
      63         -0.315861        2.000000        0.12203006        0.03430576        0.18161822        0.01929592        0.00502477        0.01118791        0.01272045        0.00713471        0.00873682
      64         -0.310295        2.000000        0.11204623        0.01443686        0.27001907        0.01873622        0.00380144        0.00465356        0.01231657        0.00591143        0.00396162
      65         -0.244293        2.000000        0.00410492        0.08429459        0.39747928        0.18855394        0.00223911        0.00437382        0.02013393        0.00629154        0.00264576
      66         -0.243824        2.000000        0.00364116        0.09197752        0.38153311        0.18290457        0.00239231        0.00399549        0.01935207        0.00573601        0.00271485
      67         -0.240407        2.000000        0.00671644        0.19376422        0.39947643        0.08276309        0.00751003        0.00431238        0.01714074        0.00456733        0.00346870
      68         -0.238393        2.000000        0.01197674        0.07516999        0.31089126        0.12947589        0.00999350        0.00737714        0.01652188        0.00604982        0.01363861
      69         -0.236126        2.000000        0.01026943        0.08123459        0.25553277        0.10671545        0.00983306        0.00532554        0.01039660        0.00373786        0.00798610
      70         -0.234642        2.000000        0.01273981        0.09802553        0.30261929        0.08623723        0.01215171        0.00576705        0.01193639        0.00416718        0.00873677
      71         -0.233185        2.000000        0.01488675        0.10965799        0.25681775        0.17438954        0.01050717        0.00962644        0.01620266        0.00239165        0.01592239
      72         -0.231405        2.000000        0.00653736        0.05122755        0.15648701        0.04880225        0.00360001        0.00474514        0.00996129        0.00201875        0.00750695
      73         -0.230462        2.000000        0.01020111        0.07771877        0.17219154        0.12185102        0.00803788        0.00810470        0.00883384        0.00343443        0.01181877
      74         -0.228770        2.000000        0.01874249        0.08451645        0.31605055        0.16211762        0.01890881        0.00643078        0.01322652        0.00580297        0.01188259
      75         -0.228459        2.000000        0.00802765        0.06392376        0.16846898        0.07400548        0.00617372        0.00490380        0.02035680        0.00216025        0.00693436
      76         -0.227699        2.000000        0.01650741        0.06926538        0.30722116        0.16066596        0.01531115        0.00626917        0.01579179        0.00418988        0.01537314
      77         -0.225675        2.000000        0.01147574        0.17336199        0.21503248        0.18826063        0.01466669        0.00876221        0.03339718        0.00652115        0.01117836
      78         -0.223998        2.000000        0.01405006        0.24257296        0.17550815        0.19103194        0.01366221        0.00716022        0.04460400        0.00904079        0.01475657
      79         -0.223080        2.000000        0.02423188        0.11618372        0.21385627        0.17446618        0.02320930        0.00359681        0.02402790        0.00542826        0.00962302
      80         -0.222129        2.000000        0.01789938        0.14442339        0.18123979        0.05013108        0.00721422        0.00423775        0.02296511        0.00388547        0.01521651
      81         -0.221968        2.000000        0.01396502        0.13048853        0.16559180        0.17462791        0.01354612        0.00963146        0.03824181        0.00329302        0.00853940
      82         -0.220022        2.000000        0.01410358        0.21575407        0.15545381        0.15730569        0.01434908        0.00303733        0.02465643        0.01158091        0.01307523
      83         -0.219530        2.000000        0.00863470        0.19157583        0.20925585        0.11856197        0.00983957        0.00402702        0.04792628        0.01386331        0.00881847
      84         -0.218615        2.000000        0.02972595        0.17556859        0.21319956        0.16573944        0.02144870        0.00584640        0.03496885        0.00515752        0.01748293
      85         -0.218242        2.000000        0.01927905        0.17347961        0.12149928        0.18293867        0.01820995        0.00436728        0.01610706        0.00647635        0.01310999
      86         -0.217551        2.000000        0.02319646        0.14249640        0.16719176        0.15376353        0.01834799        0.00780451        0.02084222        0.00467781        0.01609561
      87         -0.217112        2.000000        0.01147429        0.14768119        0.12934807        0.14530587        0.01321963        0.00535734        0.03147544        0.00811894        0.01127697
      88         -0.216593        2.000000        0.00659559        0.14462845        0.09243445        0.12970200        0.01127954        0.00558319        0.02119201        0.00606105        0.00913487
      89         -0.215427        2.000000        0.01697990        0.08150374        0.08566441        0.06577943        0.01138634        0.00314931        0.01257736        0.00204543        0.01182584
      90         -0.214975        2.000000        0.02323535        0.17531788        0.21125368        0.14043040        0.01103572        0.00670046        0.03411060        0.00618253        0.02486429
      91         -0.213952        2.000000        0.01831171        0.11963167        0.16044819        0.05078110        0.00879047        0.00479912        0.02566213        0.00142395        0.01840671
      92         -0.213065        2.000000        0.01637303        0.09955647        0.20146375        0.03159813        0.00557261        0.00272529        0.05010361        0.00489775        0.01523004
      93         -0.212450        2.000000        0.01100460        0.05707548        0.13953005        0.06215700        0.00994814        0.00341978        0.02605264        0.00546698        0.00630777
      94         -0.211995        2.000000        0.03125202        0.20218097        0.20954269        0.14082266        0.01917455        0.00558774        0.02710509        0.00443682        0.03039478
      95         -0.210852        2.000000        0.02123048        0.10362133        0.22223150        0.16730543        0.02127107        0.01020370        0.04208171        0.00625222        0.01474770
      96         -0.210363        2.000000        0.00891181        0.05473593        0.22706633        0.07862074        0.01216516        0.00826967        0.03991772        0.01047079        0.00794053
      97         -0.209738        2.000000        0.00836944        0.04456661        0.09566188        0.05663740        0.00764588        0.00238801        0.01393534        0.00356470        0.00732565
      98         -0.208852        2.000000        0.01292111        0.04873500        0.15980897        0.09285972        0.01343186        0.00420947        0.03523002        0.00313886        0.00966227
      99         -0.207083        2.000000        0.00858675        0.07427262        0.19487153        0.09842098        0.01246812        0.00615719        0.06098615        0.00491347        0.00999025
     100         -0.206899        2.000000        0.00614783        0.03038526        0.10207069        0.04060899        0.00483845        0.00333800        0.02806514        0.00294528        0.00449038
     101         -0.206474        2.000000        0.01068704        0.09164931        0.14398572        0.04126865        0.00371204        0.00371822        0.03426658        0.00298470        0.01411459
     102         -0.205984        2.000000        0.00728966        0.03556293        0.15545262        0.05193099        0.00610920        0.00600900        0.05404675        0.00438940        0.00503884
     103         -0.204422        2.000000        0.00381634        0.04043033        0.07768353        0.05801781        0.00411544        0.00303512        0.01864320        0.00280351        0.00755158
     104         -0.203478        2.000000        0.00475284        0.07956167        0.19924999        0.04885258        0.00482654        0.00554337        0.06910641        0.00470595        0.00609838
     105         -0.203068        2.000000        0.01287907        0.07831559        0.20073591        0.05179643        0.00631893        0.00568981        0.05679552        0.00538151        0.01602201
     106         -0.202573        2.000000        0.00622518        0.06218032        0.14835253        0.07050800        0.00689322        0.00897409        0.02616325        0.00645017        0.00952021
     107         -0.202355        2.000000        0.00943802        0.06259215        0.17509693        0.08953730        0.01028574        0.00906767        0.04011803        0.00690536        0.00917018
     108         -0.200856        2.000000        0.00810264        0.08115692        0.14191266        0.01341122        0.00508777        0.00480722        0.02555254        0.00531041        0.01031961
     109         -0.200278        2.000000        0.00738874        0.05336494        0.17209569        0.07361975        0.00988747        0.00760502        0.05767959        0.00616251        0.00760219
     110         -0.199851        2.000000        0.00935241        0.06303711        0.18313098        0.05131424        0.01147848        0.00457169        0.05293240        0.00632936        0.00720657
     111         -0.198198        2.000000        0.00947841        0.04961107        0.17724425        0.08843521        0.01022692        0.00853795        0.04536651        0.00483319        0.00987686
     112         -0.197960        2.000000        0.00648098        0.03881341        0.07541244        0.08157436        0.00571333        0.00479314        0.01137257        0.00291806        0.00948890
     113         -0.197062        2.000000        0.00441199        0.06901397        0.11877340        0.03370251        0.00961522        0.00455086        0.02332121        0.00683535        0.00493036
     114         -0.196416        2.000000        0.00673521        0.04881106        0.11055507        0.06842033        0.00747792        0.00602473        0.02376242        0.00459861        0.00812535
     115         -0.195304        2.000000        0.00902232        0.07424767        0.14308001        0.07840274        0.01180439        0.00481032        0.04480804        0.00582286        0.01068687
     116         -0.194593        2.000000        0.00768861        0.10399667        0.14340091        0.06657961        0.01425643        0.00428372        0.02298996        0.00848997        0.00966744
     117         -0.194444        2.000000        0.00470785        0.04702486        0.14475591        0.04889261        0.00781206        0.00673644        0.03085715        0.00629697        0.00667535
     118         -0.193885        2.000000        0.00319842        0.03986894        0.07875791        0.02617913        0.00599574        0.00266975        0.02720366        0.00401413        0.00246838
     119         -0.193135        2.000000        0.00594827        0.04051203        0.13247378        0.04583353        0.00733322        0.00590774        0.03442159        0.00388714        0.00471752
     120         -0.191774        2.000000        0.00310713        0.02940794        0.08422335        0.02280210        0.00549666        0.00254393        0.02123869        0.00311812        0.00352508
     121         -0.191215        2.000000        0.00467889        0.05881936        0.12992211        0.03659269        0.01097014        0.00371813        0.01992292        0.00551477        0.00510596
     122         -0.190292        2.000000        0.00584801        0.03572983        0.10599668        0.03937065        0.00780675        0.00465345        0.02615218        0.00373440        0.00368101
     123         -0.189295        2.000000        0.00203122        0.02468380        0.07058765        0.02484226        0.00283211        0.00274656        0.02248278        0.00241602        0.00325578
     124         -0.188343        2.000000        0.00612944        0.04796128        0.16169833        0.04166660        0.00758927        0.00645567        0.04612550        0.00643512        0.00739677
     125         -0.186679        2.000000        0.00300877        0.01942898        0.07767657        0.01446820        0.00331666        0.00229719        0.01982677        0.00221998        0.00326055
     126         -0.184538        2.000000        0.00199467        0.01688844        0.09439389        0.01524309        0.00295857        0.00341023        0.03044905        0.00430764        0.00128576
     127         -0.183452        2.000000        0.00177995        0.01122317        0.05035886        0.02102350        0.00290628        0.00234162        0.01265225        0.00256664        0.00200794
     128         -0.182292        2.000000        0.00378631        0.04582126        0.11495634        0.02662012        0.00738747        0.00295572        0.03429213        0.00498878        0.00281644
     129         -0.179866        2.000000        0.00181588        0.01278379        0.06440728        0.02308405        0.00321631        0.00214685        0.01557384        0.00248189        0.00197951
     130         -0.178559        2.000000        0.00403072        0.03485125        0.07475084        0.02534421        0.00489052        0.00307074        0.01963627        0.00351886        0.00364622
     131         -0.177790        2.000000        0.00252620        0.03198587        0.06434164        0.01266763        0.00226816        0.00333955        0.01772738        0.00258826        0.00361067
     132         -0.175588        2.000000        0.00059886        0.01862348        0.03761538        0.00876312        0.00097745        0.00164567        0.00766050        0.00154286        0.00209096
     133         -0.174531        2.000000        0.00104976        0.01582010        0.04040348        0.02312616        0.00174090        0.00258703        0.01200382        0.00132736        0.00151458
     134         -0.173548        2.000000        0.00080981        0.01572219        0.02657374        0.02225333        0.00228863        0.00153760        0.00550174        0.00179923        0.00073485
     135         -0.172517        2.000000        0.00062996        0.01480762        0.03562810        0.03937858        0.00251666        0.00130887        0.00906858        0.00253466        0.00091121
     136         -0.169397        2.000000        0.00362877        0.04891526        0.07790924        0.04542869        0.00350848        0.00290137        0.03040627        0.00312867        0.00241297
     137         -0.168814        2.000000        0.00159524        0.29091404        0.02671847        0.26097761        0.00536961        0.01102856        0.00562172        0.01012391        0.00708221
     138         -0.168038        2.000000        0.00183436        0.01369824        0.04441460        0.04502805        0.00279042        0.00190906        0.01541337        0.00237776        0.00138218
     139         -0.167646        2.000000        0.00100412        0.28961971        0.03392147        0.12713860        0.00434046        0.00934795        0.01054428        0.00628542        0.00755529
     140         -0.166128        2.000000        0.00165862        0.02907390        0.03969782        0.55417560        0.01268220        0.00328207        0.01059374        0.01994209        0.00339094
     141         -0.163727        2.000000        0.00221406        0.59596385        0.03211183        0.21303329        0.00713182        0.01975580        0.00760175        0.01255175        0.01183636
     142         -0.154176        2.000000        0.00222794        0.06428607        0.02334843        0.72752393        0.07547529        0.00382238        0.00586178        0.02520510        0.00867753
     143         -0.149152        2.000000        0.00095108        0.51927043        0.01417534        0.29439778        0.03228462        0.01649422        0.00246244        0.01100392        0.05671374
     144         -0.147768        2.000000        0.00123426        0.60227080        0.02383028        0.19162324        0.02159542        0.01793965        0.00578746        0.00863774        0.06725797