# Projected DOS for atomic kind Ge at iteration step i = 0, E(Fermi) =    -0.078200 a.u.
#     MO Eigenvalue [a.u.]      Occupation                 s                py                pz                px               d-2               d-1                d0               d+1               d+2
       1         -0.500273        2.000000        0.75367078        0.00599933        0.02056524        0.00484558        0.00068975        0.00051865        0.00779956        0.00064419        0.00097341
       2         -0.485399        2.000000        0.00906912        0.00012139        0.00307802        0.00022912        0.00003445        0.00001175        0.00058368        0.00004893        0.00002724
       3         -0.482420        2.000000        0.65356191        0.03667931        0.01282365        0.07646006        0.00700037        0.00210522        0.00304158        0.00434645        0.00364445
       4         -0.479578        2.000000        0.65705166        0.08524218        0.01451569        0.03115749        0.00301726        0.00420982        0.00281177        0.00181829        0.00849901
       5         -0.475786        2.000000        0.65124409        0.03403092        0.00903704        0.08331735        0.00814060        0.00180585        0.00352405        0.00494853        0.00366355
       6         -0.474541        2.000000        0.63881496        0.04535803        0.00992238        0.06701931        0.00679566        0.00243210        0.00280789        0.00358947        0.00454013
       7         -0.472479        2.000000        0.64608287        0.10577018        0.00887008        0.00914719        0.00165236        0.00555315        0.00357382        0.00091127        0.01095914
       8         -0.469007        2.000000        0.04860708        0.00495652        0.00190667        0.00381842        0.00035370        0.00034846        0.00036023        0.00021161        0.00062066
       9         -0.467486        2.000000        0.60151329        0.03391110        0.00743491        0.08069732        0.00765242        0.00181906        0.00292518        0.00450998        0.00332990
      10         -0.463323        2.000000        0.01622968        0.00131132        0.00180928        0.00147575        0.00021445        0.00012072        0.00032794        0.00010058        0.00018827
      11         -0.462555        2.000000        0.02053428        0.00125858        0.00191392        0.00232253        0.00028130        0.00009550        0.00035674        0.00018135        0.00016025
      12         -0.462308        2.000000        0.01405452        0.00071631        0.00115429        0.00153625        0.00022145        0.00008309        0.00022677        0.00017966        0.00012418
      13         -0.458438        2.000000        0.00631198        0.00034834        0.00144485        0.00054228        0.00008344        0.00007556        0.00019614        0.00005497        0.00008649
      14         -0.455758        2.000000        0.00344284        0.00048440        0.00086034        0.00019297        0.00003224        0.00004850        0.00014191        0.00003252        0.00007706
      15         -0.439895        2.000000        0.54698499        0.13819337        0.00245148        0.07887938        0.01275648        0.00872570        0.00082259        0.00585869        0.01653646
      16         -0.436227        2.000000        0.54294448        0.05814525        0.00262046        0.15834967        0.01944042        0.00532187        0.00067822        0.00953053        0.01226647
      17         -0.433828        2.000000        0.54611739        0.06795013        0.00190528        0.14056119        0.01877672        0.00517192        0.00031035        0.01163118        0.01434704
      18         -0.432200        2.000000        0.54592686        0.09864948        0.00238344        0.10787013        0.01837349        0.00732671        0.00081518        0.00771646        0.01369041
      19         -0.430658        2.000000        0.52822020        0.12758702        0.00109230        0.08323558        0.01403571        0.00784334        0.00053440        0.00529678        0.01615052
      20         -0.430183        2.000000        0.54855011        0.12135970        0.00146704        0.07586673        0.01257326        0.00912399        0.00041753        0.00502080        0.02438498
      21         -0.427989        2.000000        0.55330898        0.09912420        0.00273347        0.09354924        0.02000156        0.00665409        0.00077982        0.00682702        0.01972522
      22         -0.426182        2.000000        0.11862652        0.03266181        0.00080541        0.01398333        0.00208658        0.00173478        0.00015484        0.00120406        0.00575070
      23         -0.425294        2.000000        0.41390831        0.09971058        0.00135364        0.06296954        0.00989416        0.00589853        0.00033492        0.00367584        0.01757097
      24         -0.423375        2.000000        0.04156483        0.00797653        0.00052480        0.00819338        0.00124415        0.00055885        0.00008618        0.00058388        0.00132076
      25         -0.420390        2.000000        0.01606549        0.00239651        0.00044395        0.00372794        0.00056103        0.00023423        0.00004874        0.00022951        0.00052636
      26         -0.419462        2.000000        0.03012655        0.00364119        0.00038621        0.00652437        0.00134053        0.00027480        0.00005357        0.00049519        0.00079893
      27         -0.418557        2.000000        0.50134124        0.05551757        0.00245225        0.12178657        0.02308445        0.00365596        0.00058203        0.00853224        0.01160323
      28         -0.417388        2.000000        0.01551930        0.00173359        0.00037946        0.00381331        0.00067501        0.00016867        0.00004093        0.00036863        0.00036526
      29         -0.416970        2.000000        0.00232265        0.00066754        0.00034185        0.00053646        0.00006397        0.00004138        0.00004339        0.00005191        0.00008811
      30         -0.415570        2.000000        0.00412298        0.00067069        0.00032799        0.00103862        0.00013387        0.00009175        0.00003434        0.00007537        0.00013690
      31         -0.415270        2.000000        0.01053808        0.00124695        0.00028852        0.00271547        0.00042466        0.00010578        0.00003452        0.00021840        0.00027501
      32         -0.412215        2.000000        0.00158156        0.00047107        0.00048049        0.00058344        0.00005385        0.00004623        0.00004197        0.00005259        0.00004034
      33         -0.377242        2.000000        0.38048069        0.07857277        0.03558178        0.21453233        0.01105092        0.00476222        0.00756558        0.01879373        0.00378329
      34         -0.374131        2.000000        0.37940131        0.08364101        0.03979148        0.20163917        0.00945969        0.00646511        0.00797518        0.01744100        0.00494440
      35         -0.371905        2.000000        0.34880482        0.23322993        0.04840247        0.02249777        0.00202513        0.01979837        0.00587105        0.00331972        0.01176276
      36         -0.368307        2.000000        0.37626925        0.09379303        0.06890869        0.10447296        0.01580810        0.01244977        0.00729670        0.01114824        0.00913901
      37         -0.365112        2.000000        0.04684429        0.01489272        0.00659146        0.01309991        0.00139354        0.00155807        0.00110064        0.00140978        0.00199761
      38         -0.364393        2.000000        0.39724410        0.11696853        0.05250112        0.11085681        0.01390057        0.01292211        0.00842594        0.01111515        0.01475588
      39         -0.362926        2.000000        0.25082975        0.07462362        0.03972118        0.06171467        0.00796863        0.00810062        0.00611005        0.00853907        0.01060238
      40         -0.362018        2.000000        0.08809218        0.02402071        0.01469765        0.02324447        0.00309442        0.00269794        0.00155209        0.00307649        0.00280555
      41         -0.361482        2.000000        0.19079609        0.05088835        0.02786336        0.05664455        0.00694795        0.00573557        0.00478996        0.00637507        0.00797594
      42         -0.360438        2.000000        0.28578031        0.10306297        0.03299348        0.07515009        0.00898262        0.00949681        0.00835476        0.00697857        0.01342527
      43         -0.358394        2.000000        0.39205736        0.10176744        0.04478483        0.12845759        0.01757399        0.00852413        0.01170823        0.01143723        0.01200478
      44         -0.356813        2.000000        0.32281847        0.09066476        0.03956877        0.09644509        0.01084669        0.00884716        0.00988954        0.00914508        0.01464970
      45         -0.355471        2.000000        0.09945037        0.02444228        0.01460500        0.03385105        0.00435514        0.00244908        0.00240130        0.00360620        0.00319295
      46         -0.353009        2.000000        0.01101326        0.00345194        0.00254913        0.00343712        0.00037899        0.00046496        0.00027315        0.00023232        0.00039434
      47         -0.352233        2.000000        0.00645824        0.00233113        0.00112595        0.00232867        0.00020828        0.00018656        0.00015795        0.00017571        0.00029723
      48         -0.350917        2.000000        0.02333176        0.00700753        0.00815884        0.00601051        0.00071232        0.00061591        0.00071767        0.00061833        0.00091894
      49         -0.349583        2.000000        0.00700220        0.00182981        0.00188760        0.00271639        0.00026590        0.00022988        0.00026626        0.00018990        0.00025763
      50         -0.347915        2.000000        0.01257216        0.00273033        0.00825233        0.00305865        0.00040162        0.00033158        0.00045984        0.00042886        0.00032997
      51         -0.342314        2.000000        0.19923532        0.02047021        0.20667185        0.03090755        0.00462444        0.00515890        0.00820932        0.00731799        0.00323839
      52         -0.336591        2.000000        0.21263121        0.03294324        0.22556340        0.02411387        0.00425787        0.00650589        0.01057603        0.00558936        0.00497805
      53         -0.335075        2.000000        0.17762710        0.02766517        0.20703709        0.01534640        0.00196034        0.00661449        0.01001034        0.00286557        0.00537046
      54         -0.331766        2.000000        0.21858594        0.02503839        0.20203287        0.03528342        0.00628540        0.00538708        0.01134576        0.00802664        0.00416736
      55         -0.331050        2.000000        0.20031874        0.01761220        0.16932578        0.04341527        0.00622272        0.00360301        0.01245579        0.00764345        0.00297789
      56         -0.328485        2.000000        0.19416879        0.03725955        0.17555335        0.01688276        0.00219610        0.00812231        0.01211743        0.00365123        0.00602390
      57         -0.326750        2.000000        0.14457314        0.01728579        0.14747374        0.02371362        0.00444265        0.00318385        0.00957169        0.00469741        0.00274756
      58         -0.322259        2.000000        0.07708015        0.01210592        0.08266762        0.00924007        0.00121165        0.00198640        0.00389471        0.00108188        0.00184790
      59         -0.320215        2.000000        0.11404260        0.01640807        0.07867144        0.02056693        0.00340700        0.00278951        0.00687238        0.00336501        0.00287216
      60         -0.318245        2.000000        0.09844887        0.01452160        0.07387152        0.01532034        0.00236240        0.00307535        0.00493900        0.00299369        0.00227887
      61         -0.316817        2.000000        0.06819899        0.00966737        0.04909812        0.01211890        0.00182612        0.00181912        0.00370021        0.00191052        0.00160487
      62         -0.315703        2.000000        0.06361796        0.00720811        0.05226287        0.01246912        0.00212216        0.00123854        0.00386701        0.00203499        0.00119976
      63         -0.313996        2.000000        0.04977313        0.01276456        0.03137334        0.00437380        0.00065194        0.00160594        0.00301425        0.00087882        0.00191795
      64         -0.311296        2.000000        0.07657573        0.00382061        0.12335580        0.00474540        0.00072493        0.00082033        0.00440661        0.00123772        0.00041949
      65         -0.244766        2.000000        0.00098713        0.00261627        0.00563762        0.00296052        0.00012772        0.00016242        0.00045399        0.00034245        0.00014974
      66         -0.242081        2.000000        0.00289592        0.01170916        0.02549499        0.01542981        0.00031354        0.00055126        0.00132898        0.00043266        0.00071287
      67         -0.238694        2.000000        0.00289931        0.01182282        0.03591312        0.01522465        0.00059083        0.00093850        0.00215446        0.00043419        0.00084374
      68         -0.236932        2.000000        0.00747675        0.02835557        0.09936470        0.06006660        0.00256518        0.00101989        0.00420773        0.00098297        0.00293617
      69         -0.235086        2.000000        0.00870851        0.12731540        0.19852843        0.06302730        0.00422930        0.00084343        0.00680963        0.00078645        0.00149172
      70         -0.234100        2.000000        0.00442557        0.03423165        0.07732561        0.04717817        0.00097497        0.00074333        0.00213720        0.00051234        0.00182057
      71         -0.232594        2.000000        0.00762627        0.05964425        0.16576461        0.09751898        0.00084472        0.00079650        0.00545718        0.00103573        0.00253618
      72         -0.230608        2.000000        0.00585644        0.04719586        0.14777462        0.08198496        0.00137992        0.00111610        0.00551026        0.00088297        0.00220991
      73         -0.229127        2.000000        0.00454594        0.04683682        0.16365893        0.06516403        0.00282728        0.00080420        0.00691548        0.00129992        0.00087498
      74         -0.228639        2.000000        0.00300561        0.07382671        0.14625819        0.02928246        0.00096622        0.00094373        0.00549446        0.00041969        0.00056205
      75         -0.227474        2.000000        0.00347005        0.02443592        0.07678259        0.03953056        0.00087518        0.00063570        0.00268005        0.00096100        0.00125498
      76         -0.226677        2.000000        0.00478631        0.03484418        0.07399776        0.02876303        0.00098150        0.00070125        0.00245910        0.00032044        0.00221359
      77         -0.224780        2.000000        0.00295347        0.03582891        0.09717936        0.03566701        0.00113420        0.00031490        0.00510473        0.00081510        0.00152865
      78         -0.221814        2.000000        0.00588385        0.05811592        0.16788245        0.06246654        0.00177392        0.00106044        0.00805027        0.00159229        0.00406719
      79         -0.221549        2.000000        0.00572896        0.02458756        0.05952108        0.01192568        0.00192577        0.00072553        0.00469740        0.00036485        0.00159462
      80         -0.221113        2.000000        0.00520697        0.02778160        0.07375567        0.03003136        0.00204697        0.00054344        0.00484688        0.00063887        0.00192775
      81         -0.220591        2.000000        0.00738077        0.04634569        0.13376659        0.05062135        0.00262309        0.00144478        0.01178290        0.00149183        0.00199579
      82         -0.219658        2.000000        0.00693496        0.04696512        0.11043510        0.03135281        0.00249348        0.00125019        0.00607195        0.00058100        0.00362146
      83         -0.219023        2.000000        0.00360042        0.01957046        0.05327085        0.01655640        0.00129880        0.00073513        0.00268405        0.00061052        0.00111068
      84         -0.218649        2.000000        0.00870043        0.09606214        0.21463586        0.07920531        0.00477680        0.00183708        0.00853482        0.00164110        0.00618728
      85         -0.217655        2.000000        0.01271352        0.05611857        0.14361855        0.06779636        0.00553095        0.00200171        0.01035453        0.00102869        0.00259839
      86         -0.216748        2.000000        0.01034584        0.08468457        0.20101109        0.05671025        0.00525661        0.00115344        0.01177068        0.00218730        0.00414204
      87         -0.215949        2.000000        0.01044215        0.11550295        0.22010365        0.04843304        0.00480456        0.00087305        0.01191717        0.00190117        0.00479567
      88         -0.215570        2.000000        0.00531200        0.03054686        0.06548215        0.02392095        0.00113075        0.00099156        0.00819979        0.00120504        0.00177895
      89         -0.215187        2.000000        0.00197187        0.02216014        0.06565092        0.02408224        0.00139172        0.00103249        0.00394051        0.00067466        0.00129673
      90         -0.213865        2.000000        0.00847754        0.04235885        0.13248891        0.06025128        0.00286381        0.00169805        0.01425639        0.00134712        0.00247175
      91         -0.213149        2.000000        0.01567648        0.06863464        0.23343124        0.10214564        0.00780303        0.00202706        0.00892911        0.00161954        0.00631929
      92         -0.212891        2.000000        0.01064365        0.04716852        0.13054442        0.04609271        0.00341408        0.00153710        0.00923862        0.00154015        0.00288016
      93         -0.211936        2.000000        0.00910202        0.05455755        0.15258956        0.06879862        0.00459968        0.00210770        0.00810178        0.00247577        0.00325612
      94         -0.210764        2.000000        0.00662920        0.04971695        0.14471280        0.04129705        0.00324282        0.00133386        0.00649318        0.00101068        0.00282038
      95         -0.210440        2.000000        0.00704527        0.05730642        0.13370701        0.02956034        0.00264309        0.00170602        0.01184918        0.00173050        0.00387467
      96         -0.210255        2.000000        0.00515174        0.04698380        0.13869950        0.05090555        0.00240872        0.00212774        0.01242374        0.00151351        0.00266063
      97         -0.209960        2.000000        0.00654906        0.03876449        0.13021591        0.04651766        0.00227661        0.00214079        0.01497958        0.00215792        0.00200815
      98         -0.209842        2.000000        0.00812153        0.03527212        0.10836025        0.03966238        0.00256585        0.00135442        0.01261641        0.00172597        0.00224268
      99         -0.207842        2.000000        0.00938302        0.05246544        0.20350565        0.07382894        0.00553118        0.00311179        0.01819455        0.00242172        0.00283488
     100         -0.206976        2.000000        0.01153189        0.07871100        0.23096322        0.13217958        0.00563947        0.00413302        0.01711373        0.00339503        0.00650523
     101         -0.206765        2.000000        0.01145685        0.06555637        0.12878614        0.09618031        0.00420096        0.00302177        0.01578955        0.00296571        0.00296586
     102         -0.205668        2.000000        0.02106743        0.14990945        0.15108757        0.15504503        0.00826436        0.00338730        0.01606571        0.00511776        0.00766657
     103         -0.204507        2.000000        0.01228733        0.07425054        0.13154241        0.07832170        0.00330409        0.00205527        0.01122713        0.00133454        0.00792086
     104         -0.203966        2.000000        0.00941022        0.05481409        0.13446769        0.09789086        0.00314637        0.00394872        0.01810484        0.00206405        0.00288854
     105         -0.203001        2.000000        0.01935791        0.06029531        0.16300108        0.08994056        0.00640292        0.00306664        0.01236935        0.00278202        0.00528722
     106         -0.202404        2.000000        0.01491818        0.07040369        0.12630527        0.12044239        0.00558025        0.00253985        0.02152681        0.00369337        0.00414061
     107         -0.201256        2.000000        0.00477870        0.09402836        0.09784727        0.07355825        0.00331537        0.00379049        0.01170058        0.00148793        0.00270768
     108         -0.200466        2.000000        0.00748408        0.03593980        0.13044101        0.08181852        0.00365062        0.00172787        0.01604670        0.00240184        0.00389927
     109         -0.199186        2.000000        0.01190514        0.07784303        0.12955857        0.07540801        0.00693105        0.00188657        0.01580732        0.00260686        0.00333139
     110         -0.198834        2.000000        0.01544197        0.09121252        0.16191800        0.08750649        0.00680155        0.00389456        0.01743950        0.00273690        0.00580728
     111         -0.198533        2.000000        0.01497196        0.06900921        0.14169320        0.08257323        0.00690519        0.00262400        0.01495790        0.00144145        0.00430316
     112         -0.197988        2.000000        0.01382870        0.10045865        0.19819571        0.05403176        0.00443453        0.00229838        0.02657681        0.00378932        0.00778048
     113         -0.197730        2.000000        0.02578147        0.16100623        0.23991579        0.12708147        0.00723371        0.00338092        0.02196807        0.00543410        0.01241376
     114         -0.196518        2.000000        0.03286513        0.16104445        0.18937785        0.12450226        0.00966504        0.00355608        0.01994557        0.00208759        0.01175740
     115         -0.195905        2.000000        0.01276638        0.06749789        0.12513009        0.06720559        0.00567029        0.00164654        0.01400074        0.00150319        0.00515620
     116         -0.194503        2.000000        0.02789843        0.11989895        0.23987506        0.10702758        0.00969903        0.00413095        0.02206182        0.00502238        0.00789091
     117         -0.193716        2.000000        0.01186807        0.06818453        0.11414371        0.06812460        0.00385406        0.00219781        0.01306049        0.00265708        0.00601193
     118         -0.193075        2.000000        0.02202430        0.14905934        0.20784809        0.09323016        0.01242277        0.00311088        0.02273702        0.00386304        0.00792759
     119         -0.192134        2.000000        0.00920309        0.11882984        0.10076991        0.06544354        0.00657629        0.00263310        0.01336878        0.00279568        0.00421966
     120         -0.191791        2.000000        0.02943382        0.11733073        0.16938550        0.11608358        0.01002314        0.00248265        0.01228557        0.00314158        0.01066900
     121         -0.190717        2.000000        0.01810446        0.13051329        0.15241442        0.13262759        0.00802960        0.00298935        0.01915819        0.00467754        0.00785109
     122         -0.189868        2.000000        0.00800650        0.09539521        0.14597749        0.13330870        0.00417024        0.00645018        0.01533209        0.00368146        0.00994731
     123         -0.188623        2.000000        0.00751754        0.04870026        0.20455205        0.03241691        0.00455769        0.00296906        0.02216819        0.00535601        0.00393263
     124         -0.187969        2.000000        0.01369613        0.12127942        0.23047573        0.11827060        0.00877771        0.00584580        0.01936837        0.00485466        0.00566141
     125         -0.187293        2.000000        0.02660966        0.11652886        0.20456888        0.17686714        0.01125134        0.00311333        0.01865314        0.00541283        0.01027895
     126         -0.184681        2.000000        0.01395655        0.16444384        0.21108592        0.17341908        0.01148676        0.00722409        0.03028982        0.00509654        0.01029044
     127         -0.183501        2.000000        0.02680548        0.07579071        0.24513355        0.15091223        0.01425764        0.00488421        0.03235923        0.00382649        0.01019032
     128         -0.182366        2.000000        0.00772277        0.10322238        0.19560538        0.07853475        0.00425410        0.00289425        0.03673621        0.00553536        0.00587670
     129         -0.180468        2.000000        0.01659198        0.12208459        0.20770198        0.18620968        0.01029820        0.00634810        0.02567756        0.00731831        0.01308282
     130         -0.177591        2.000000        0.01097179        0.06710414        0.26701002        0.07540742        0.00410559        0.00327009        0.05417565        0.00513423        0.00755729
     131         -0.177177        2.000000        0.01381638        0.14247321        0.25141853        0.11441548        0.00783904        0.00694526        0.03210453        0.00631507        0.01357906
     132         -0.175658        2.000000        0.01185000        0.12468063        0.21102451        0.07659836        0.00692367        0.00545546        0.03518418        0.00770544        0.00926456
     133         -0.173049        2.000000        0.02365548        0.17908101        0.24700310        0.13984342        0.01257866        0.00797413        0.02581458        0.01040016        0.01777049
     134         -0.171990        2.000000        0.01742092        0.19353266        0.22329765        0.23398106        0.01568178        0.01054202        0.02005040        0.01047119        0.01551669
     135         -0.170692        2.000000        0.00928524        0.14896750        0.25772797        0.09028915        0.00860541        0.00689157        0.03897811        0.00955216        0.00823446
     136         -0.169716        2.000000        0.02365243        0.16423786        0.25708695        0.07416686        0.01329094        0.00552717        0.03252824        0.00827023        0.01123202
     137         -0.169002        2.000000        0.01684432        0.07061481        0.23780303        0.07267549        0.00989371        0.00678091        0.05404668        0.00344151        0.00362773
     138         -0.167699        2.000000        0.01731168        0.13426578        0.22766374        0.12742395        0.01382037        0.00947929        0.03392260        0.00706652        0.00863050
     139         -0.166569        2.000000        0.00241140        0.02613531        0.03380613        0.01791419        0.00175464        0.00174041        0.00491097        0.00111104        0.00175251
     140         -0.165508        2.000000        0.00361210        0.01404366        0.04651371        0.01821526        0.00189952        0.00100516        0.00854903        0.00070500        0.00186742
     141         -0.162614        2.000000        0.00044483        0.00262439        0.00734210        0.00278544        0.00025971        0.00018888        0.00128548        0.00011951        0.00024714
     142         -0.153053        2.000000        0.00007799        0.00066063        0.00196581        0.00055345        0.00003926        0.00004239        0.00028681        0.00002908        0.00006859
     143         -0.148131        2.000000        0.00004908        0.00030532        0.00096468        0.00104458        0.00003976        0.00003480        0.00006338        0.00005579        0.00003118
     144         -0.145986        2.000000        0.00010117        0.00126461        0.00109597        0.00209820        0.00007354        0.00007429        0.00013290        0.00005190        0.00006903