# Projected DOS for atomic kind H at iteration step i = 0, E(Fermi) =    -0.077689 a.u.
#     MO Eigenvalue [a.u.]      Occupation                 s                py                pz                px
       1         -0.499992        2.000000        0.10634644        0.00117724        0.08134586        0.00080577
       2         -0.487181        2.000000        0.14893693        0.00062525        0.11704700        0.00035152
       3         -0.481417        2.000000        0.09674506        0.00730523        0.07244037        0.00550898
       4         -0.480304        2.000000        0.09890759        0.00615382        0.07411698        0.00630006
       5         -0.475880        2.000000        0.09926993        0.00334965        0.07450131        0.00905924
       6         -0.474095        2.000000        0.10453735        0.00661581        0.06759885        0.00701201
       7         -0.472438        2.000000        0.10253316        0.01228146        0.07017866        0.00215478
       8         -0.471041        2.000000        0.10800943        0.00772278        0.08723502        0.00350519
       9         -0.467836        2.000000        0.10541147        0.00549893        0.06581389        0.01063074
      10         -0.466290        2.000000        0.10412011        0.00367633        0.08919742        0.00823627
      11         -0.464918        2.000000        0.11119470        0.00402072        0.08599107        0.00785205
      12         -0.463224        2.000000        0.10843385        0.00567905        0.08611794        0.00751590
      13         -0.459871        2.000000        0.11487138        0.00601487        0.08143022        0.00677272
      14         -0.457680        2.000000        0.11342928        0.01139795        0.07695255        0.00367011
      15         -0.439234        2.000000        0.10478474        0.01114292        0.06121288        0.00529007
      16         -0.437019        2.000000        0.10239798        0.00472184        0.06033725        0.01238847
      17         -0.432863        2.000000        0.10892045        0.00552279        0.05982305        0.00944451
      18         -0.432144        2.000000        0.10478981        0.00982095        0.05779712        0.00997623
      19         -0.430446        2.000000        0.10910749        0.00942623        0.05620261        0.00809147
      20         -0.428952        2.000000        0.11145549        0.00873259        0.05918093        0.00649715
      21         -0.428278        2.000000        0.10380506        0.00787787        0.06190307        0.00656891
      22         -0.427337        2.000000        0.10942941        0.00710208        0.06151317        0.00503925
      23         -0.426429        2.000000        0.10713386        0.00748743        0.06134742        0.00797776
      24         -0.424699        2.000000        0.10590916        0.00779551        0.05987858        0.00527427
      25         -0.422587        2.000000        0.11399149        0.00494212        0.05677184        0.00896559
      26         -0.421453        2.000000        0.10993822        0.01049373        0.05548870        0.00490280
      27         -0.420192        2.000000        0.11317296        0.00586713        0.05648021        0.00753531
      28         -0.418794        2.000000        0.11137699        0.00611254        0.05501110        0.00970050
      29         -0.418388        2.000000        0.11245770        0.00781083        0.05636801        0.00839289
      30         -0.417698        2.000000        0.11247406        0.00634796        0.06081798        0.00733177
      31         -0.416507        2.000000        0.10996817        0.00794933        0.05660440        0.00621724
      32         -0.412556        2.000000        0.11689284        0.00537133        0.05580086        0.00933281
      33         -0.376376        2.000000        0.15993321        0.00590447        0.04126130        0.01470358
      34         -0.374004        2.000000        0.16137800        0.00635952        0.04142581        0.01273643
      35         -0.371824        2.000000        0.16559511        0.01591849        0.03880461        0.00401720
      36         -0.367226        2.000000        0.18373211        0.00639444        0.03972803        0.00680163
      37         -0.364858        2.000000        0.15690213        0.00812076        0.03973593        0.00610360
      38         -0.364543        2.000000        0.17506587        0.00689107        0.04098607        0.00510858
      39         -0.363535        2.000000        0.15078870        0.00542612        0.03769625        0.00867388
      40         -0.363213        2.000000        0.15655048        0.00553210        0.04233914        0.00728542
      41         -0.360811        2.000000        0.18083176        0.00544613        0.03863442        0.00523323
      42         -0.360481        2.000000        0.17640655        0.00464805        0.04382792        0.00527116
      43         -0.357298        2.000000        0.17810983        0.00364566        0.04385978        0.00750608
      44         -0.357010        2.000000        0.17234502        0.00692283        0.04368911        0.00543751
      45         -0.356080        2.000000        0.18593953        0.00548385        0.04114979        0.00432151
      46         -0.355615        2.000000        0.18105263        0.00596571        0.03972977        0.00544824
      47         -0.353849        2.000000        0.18118890        0.00491897        0.03992531        0.00548478
      48         -0.352925        2.000000        0.17691734        0.00508140        0.03960427        0.00639400
      49         -0.351738        2.000000        0.17398551        0.00671748        0.04172579        0.00652752
      50         -0.350587        2.000000        0.18654705        0.00393618        0.03739727        0.00666218
      51         -0.340729        2.000000        0.29476460        0.00333416        0.02687805        0.00337733
      52         -0.335789        2.000000        0.30434456        0.00523869        0.02172598        0.00157831
      53         -0.333754        2.000000        0.30797844        0.00197800        0.01926712        0.00301806
      54         -0.332529        2.000000        0.30218133        0.00253009        0.01932672        0.00448555
      55         -0.330813        2.000000        0.30257013        0.00259304        0.02078124        0.00378737
      56         -0.328875        2.000000        0.29656470        0.00179969        0.02031597        0.00509356
      57         -0.327988        2.000000        0.29971264        0.00352033        0.02330426        0.00172421
      58         -0.322343        2.000000        0.29474776        0.00200438        0.04216381        0.00219391
      59         -0.321695        2.000000        0.28308022        0.00268742        0.04357264        0.00235290
      60         -0.319805        2.000000        0.28758209        0.00172865        0.04784509        0.00468591
      61         -0.318765        2.000000        0.28147629        0.00257108        0.04989482        0.00233633
      62         -0.318352        2.000000        0.28191660        0.00153648        0.04865041        0.00262007
      63         -0.315861        2.000000        0.28142035        0.00303308        0.04904962        0.00213853
      64         -0.310295        2.000000        0.29726556        0.00190034        0.05170093        0.00178210
      65         -0.244293        2.000000        0.23418980        0.00823880        0.00210074        0.02450013
      66         -0.243824        2.000000        0.23320905        0.01005055        0.00157833        0.02755935
      67         -0.240407        2.000000        0.21837189        0.02382726        0.00174242        0.01107786
      68         -0.238393        2.000000        0.20817146        0.01517532        0.00502990        0.02800674
      69         -0.236126        2.000000        0.20143341        0.02027232        0.00423315        0.02366631
      70         -0.234642        2.000000        0.20226195        0.02413578        0.00466356        0.02152413
      71         -0.233185        2.000000        0.18854104        0.01720918        0.00308696        0.02362144
      72         -0.231405        2.000000        0.22336674        0.01590980        0.00330229        0.02371223
      73         -0.230462        2.000000        0.20575529        0.01491445        0.00261705        0.02533402
      74         -0.228770        2.000000        0.18866459        0.01424470        0.00371012        0.02505425
      75         -0.228459        2.000000        0.22538853        0.01941115        0.00315906        0.01234861
      76         -0.227699        2.000000        0.19193400        0.01808528        0.00395595        0.02278155
      77         -0.225675        2.000000        0.18802414        0.01755027        0.00432073        0.01471574
      78         -0.223998        2.000000        0.17321690        0.01921800        0.00390128        0.01562538
      79         -0.223080        2.000000        0.17837319        0.01403099        0.00525187        0.02033146
      80         -0.222129        2.000000        0.21670258        0.01758771        0.00544815        0.00990906
      81         -0.221968        2.000000        0.19334824        0.01314906        0.00716639        0.01950118
      82         -0.220022        2.000000        0.16341040        0.02682871        0.00331839        0.01380736
      83         -0.219530        2.000000        0.21150122        0.01958530        0.00598916        0.01260780
      84         -0.218615        2.000000        0.17063340        0.01556342        0.00564948        0.01795249
      85         -0.218242        2.000000        0.14382283        0.01888803        0.00426824        0.01978645
      86         -0.217551        2.000000        0.16459648        0.01781372        0.00390752        0.02329509
      87         -0.217112        2.000000        0.18544533        0.01789521        0.00650705        0.01900310
      88         -0.216593        2.000000        0.18856678        0.01820717        0.00392186        0.01530950
      89         -0.215427        2.000000        0.19589280        0.02103219        0.00560527        0.01851691
      90         -0.214975        2.000000        0.17394845        0.01888978        0.00502875        0.01270963
      91         -0.213952        2.000000        0.20988942        0.01721796        0.00757360        0.01329779
      92         -0.213065        2.000000        0.25225755        0.01691106        0.00901888        0.01321797
      93         -0.212450        2.000000        0.20699990        0.01195331        0.00831401        0.02227755
      94         -0.211995        2.000000        0.15940774        0.02262795        0.00591890        0.01397343
      95         -0.210852        2.000000        0.20321205        0.01191532        0.00629551        0.01778266
      96         -0.210363        2.000000        0.25991668        0.01416107        0.00597548        0.01668867
      97         -0.209738        2.000000        0.23700436        0.01186306        0.00499682        0.01810318
      98         -0.208852        2.000000        0.24869833        0.01441331        0.00669069        0.01425141
      99         -0.207083        2.000000        0.25203770        0.00826911        0.00981397        0.01380777
     100         -0.206899        2.000000        0.23941543        0.01461200        0.00666972        0.01685899
     101         -0.206474        2.000000        0.20092440        0.02305115        0.00654174        0.01381003
     102         -0.205984        2.000000        0.27032073        0.01162230        0.00911490        0.01269272
     103         -0.204422        2.000000        0.20907186        0.01455032        0.00599668        0.01972159
     104         -0.203478        2.000000        0.29088017        0.01202326        0.00728705        0.00880082
     105         -0.203068        2.000000        0.23538402        0.01410663        0.00770436        0.01147162
     106         -0.202573        2.000000        0.22385730        0.01307382        0.00507325        0.01980717
     107         -0.202355        2.000000        0.22283453        0.01354157        0.00672153        0.01581321
     108         -0.200856        2.000000        0.21578506        0.01701374        0.00609322        0.01271055
     109         -0.200278        2.000000        0.27105550        0.00935315        0.01201772        0.01420932
     110         -0.199851        2.000000        0.23392164        0.01412228        0.00956666        0.01358442
     111         -0.198198        2.000000        0.21438302        0.01619767        0.00840040        0.01590108
     112         -0.197960        2.000000        0.19251918        0.01261586        0.00606403        0.02075445
     113         -0.197062        2.000000        0.22592080        0.01703306        0.00581055        0.01165392
     114         -0.196416        2.000000        0.23493782        0.01390556        0.00838299        0.01549112
     115         -0.195304        2.000000        0.20716186        0.01307142        0.00929272        0.01674500
     116         -0.194593        2.000000        0.22406346        0.01543576        0.00617744        0.01454567
     117         -0.194444        2.000000        0.24580200        0.01256497        0.00683446        0.01084191
     118         -0.193885        2.000000        0.24972393        0.01752119        0.00754758        0.00854512
     119         -0.193135        2.000000        0.21091957        0.01638707        0.00714429        0.01469476
     120         -0.191774        2.000000        0.20713223        0.02125845        0.00663388        0.01294723
     121         -0.191215        2.000000        0.26678036        0.01721819        0.00489596        0.01153211
     122         -0.190292        2.000000        0.21925869        0.01584861        0.00724166        0.01602458
     123         -0.189295        2.000000        0.24566132        0.01074370        0.00551067        0.01843373
     124         -0.188343        2.000000        0.28549070        0.01027051        0.00844660        0.01430875
     125         -0.186679        2.000000        0.18969575        0.01609192        0.00523887        0.01868595
     126         -0.184538        2.000000        0.23917604        0.01474302        0.00728649        0.01394891
     127         -0.183452        2.000000        0.23097614        0.01805782        0.00631489        0.01326861
     128         -0.182292        2.000000        0.33510757        0.00737738        0.00763345        0.00963896
     129         -0.179866        2.000000        0.24919493        0.01104900        0.00807231        0.01632145
     130         -0.178559        2.000000        0.28273205        0.01225064        0.00697906        0.01086534
     131         -0.177790        2.000000        0.26715221        0.01886276        0.00724770        0.00649407
     132         -0.175588        2.000000        0.25024960        0.01855721        0.01162332        0.00876175
     133         -0.174531        2.000000        0.27092440        0.01184161        0.00995650        0.01567102
     134         -0.173548        2.000000        0.25858556        0.01077268        0.01037916        0.01615735
     135         -0.172517        2.000000        0.22047394        0.01353961        0.00933841        0.01752391
     136         -0.169397        2.000000        0.28996436        0.01293308        0.01299958        0.01017451
     137         -0.168814        2.000000        0.09313533        0.02309052        0.00474356        0.01698182
     138         -0.168038        2.000000        0.26542890        0.01193131        0.01257741        0.01365602
     139         -0.167646        2.000000        0.15649812        0.02423017        0.00692917        0.01128127
     140         -0.166128        2.000000        0.09855526        0.00756053        0.00353045        0.03076453
     141         -0.163727        2.000000        0.02817534        0.03271435        0.00165330        0.01047335
     142         -0.154176        2.000000        0.01375843        0.00405151        0.00163396        0.03750270
     143         -0.149152        2.000000        0.00521113        0.02833533        0.00118676        0.01475571
     144         -0.147768        2.000000        0.01082712        0.03298930        0.00184788        0.00990957
     145         -0.146164        2.000000        0.00793169        0.03108234        0.00135281        0.01045540
     146         -0.145642        2.000000        0.00802151        0.02541122        0.00170096        0.01686049
     147         -0.141318        2.000000        0.00460950        0.00944609        0.00140267        0.03815629
     148         -0.140623        2.000000        0.00772980        0.00533443        0.00186294        0.03951250
     149         -0.137583        2.000000        0.01026842        0.03906074        0.00300176        0.01226124
     150         -0.135191        2.000000        0.01152946        0.03949849        0.00309210        0.01225988
     151         -0.122780        2.000000        0.00396215        0.00739955        0.00157804        0.04119505
     152         -0.119767        2.000000        0.00238820        0.00084794        0.00091472        0.03671926
     153         -0.118063        2.000000        0.00429608        0.03388215        0.00230756        0.01507454
     154         -0.117537        2.000000        0.00312110        0.03913222        0.00094551        0.00210371
     155         -0.116707        2.000000        0.00285792        0.01785918        0.00112295        0.03152911
     156         -0.114296        2.000000        0.00522104        0.03725943        0.00182710        0.01224629
     157         -0.110809        2.000000        0.00339132        0.02423348        0.00200253        0.02650318
     158         -0.109141        2.000000        0.00372874        0.03553469        0.00170587        0.01555716
     159         -0.083754        2.000000        0.00349701        0.00145871        0.00076315        0.04474814
     160         -0.077689        2.000000        0.00323939        0.04711302        0.00092162        0.00162274
     161         -0.046563        0.000000        0.03059523        0.00176942        0.01389175        0.00193441
     162         -0.043042        0.000000        0.00553330        0.00653726        0.01420701        0.00696793
     163         -0.040866        0.000000        0.00537907        0.00898871        0.01263209        0.01005993
     164         -0.038496        0.000000        0.00561899        0.00925731        0.01378403        0.01136389
     165         -0.036045        0.000000        0.01219481        0.00321076        0.01371305        0.00273251
     166         -0.030405        0.000000        0.01310777        0.02089434        0.01408234        0.00903513
     167         -0.029196        0.000000        0.01441142        0.01200018        0.01186923        0.01997768
     168         -0.025172        0.000000        0.01491343        0.01011145        0.01422515        0.02427361
     169         -0.023685        0.000000        0.01450678        0.01335227        0.01507662        0.02050467
     170         -0.021940        0.000000        0.01632882        0.01069870        0.01796878        0.02175323
     171         -0.021554        0.000000        0.01426850        0.01348817        0.01728536        0.01677558
     172         -0.018508        0.000000        0.01414152        0.02031804        0.01639227        0.02089713
     173         -0.017564        0.000000        0.01416523        0.02275470        0.01524506        0.01276194
     174         -0.016017        0.000000        0.02049116        0.02396529        0.01926517        0.01289254
     175         -0.004353        0.000000        0.00972463        0.01849154        0.02177769        0.03112873
     176          0.000105        0.000000        0.01211569        0.03645896        0.02377412        0.01447178
     177          0.000598        0.000000        0.01195007        0.02668448        0.02078065        0.02835727
     178          0.004620        0.000000        0.01166660        0.02063484        0.02459718        0.02951814
     179          0.005432        0.000000        0.01305120        0.02304626        0.02548957        0.02621303
     180          0.007723        0.000000        0.02039782        0.01841526        0.03287521        0.02885070
     181          0.020700        0.000000        0.04020022        0.03457301        0.03586344        0.09278783
     182          0.021717        0.000000        0.05165768        0.06510097        0.04838145        0.09164684
     183          0.023578        0.000000        0.05683966        0.05385691        0.04895459        0.08950941
     184          0.025297        0.000000        0.01365837        0.02893386        0.01086204        0.04537920
     185          0.029677        0.000000        0.07896597        0.14626411        0.06018293        0.04913279
     186          0.033187        0.000000        0.07905504        0.07974104        0.04859102        0.07769621
     187          0.038090        0.000000        0.07612687        0.04675302        0.05579258        0.10744525
     188          0.040936        0.000000        0.06798358        0.05666596        0.05071421        0.08454013
     189          0.041693        0.000000        0.06751901        0.04847319        0.05816837        0.10655478
     190          0.043776        0.000000        0.07980458        0.10284155        0.05905449        0.06889902
     191          0.045099        0.000000        0.06890335        0.06305721        0.04945277        0.09625672
     192          0.046309        0.000000        0.07410090        0.07104238        0.04609024        0.07834226
     193          0.051376        0.000000        0.06549142        0.10518307        0.04966133        0.05925940
     194          0.052969        0.000000        0.05795818        0.07362675        0.06955135        0.11026348
     195          0.054128        0.000000        0.07680658        0.10679049        0.05887516        0.06287953
     196          0.054822        0.000000        0.07112969        0.10837119        0.06980220        0.04436765
     197          0.056000        0.000000        0.07357785        0.07177878        0.05361363        0.06209989
     198          0.058507        0.000000        0.05609190        0.08316853        0.05447138        0.05326144
     199          0.060249        0.000000        0.05762793        0.06921530        0.05094362        0.05135039
     200          0.061618        0.000000        0.09837781        0.05851569        0.06341828        0.06982820
     201          0.063251        0.000000        0.07968096        0.06847033        0.05925952        0.06399860
     202          0.065360        0.000000        0.05832421        0.06511005        0.03613183        0.04602844
     203          0.066144        0.000000        0.07286780        0.05285639        0.05481154        0.06288029
     204          0.067070        0.000000        0.09312633        0.04608046        0.04715710        0.06245034
     205          0.068533        0.000000        0.07027345        0.03576242        0.03962305        0.06465711
     206          0.069913        0.000000        0.06879900        0.05028509        0.04252888        0.06631788
     207          0.070729        0.000000        0.09198881        0.05076705        0.04517742        0.05147060
     208          0.071490        0.000000        0.09191700        0.05310923        0.04739314        0.04373465
     209          0.072494        0.000000        0.06070562        0.04471257        0.03416603        0.06189504
     210          0.073110        0.000000        0.09669923        0.03768341        0.03948019        0.05795096
