# Projected DOS for atomic kind H at iteration step i = 0, E(Fermi) =    -0.077658 a.u.
#     MO Eigenvalue [a.u.]      Occupation                 s                py                pz                px
       1         -0.500076        2.000000        0.10636527        0.00110602        0.08145160        0.00079604
       2         -0.487486        2.000000        0.14978000        0.00060853        0.11694946        0.00036790
       3         -0.481538        2.000000        0.09654394        0.00867894        0.07344208        0.00364804
       4         -0.480282        2.000000        0.09896350        0.00444324        0.07339269        0.00818912
       5         -0.475878        2.000000        0.09834950        0.00342418        0.07400585        0.00903416
       6         -0.474182        2.000000        0.10406563        0.00699335        0.06766938        0.00629218
       7         -0.472429        2.000000        0.10296908        0.01180699        0.06934098        0.00272397
       8         -0.471241        2.000000        0.10837710        0.00767942        0.08739790        0.00352061
       9         -0.468175        2.000000        0.10747856        0.00571239        0.06580424        0.01051046
      10         -0.466855        2.000000        0.10165494        0.00367797        0.09012565        0.00810919
      11         -0.465133        2.000000        0.11177352        0.00368618        0.08662578        0.00794029
      12         -0.463214        2.000000        0.10850667        0.00588028        0.08630342        0.00747792
      13         -0.460269        2.000000        0.11602233        0.00655378        0.08145829        0.00649815
      14         -0.457942        2.000000        0.11392567        0.01083958        0.07694016        0.00419516
      15         -0.439069        2.000000        0.10446663        0.01120448        0.06101467        0.00510704
      16         -0.437313        2.000000        0.10202638        0.00481405        0.06036299        0.01199298
      17         -0.432915        2.000000        0.10920028        0.00586482        0.05997699        0.00869641
      18         -0.432173        2.000000        0.10511402        0.00952608        0.05789579        0.01002529
      19         -0.430587        2.000000        0.10868721        0.00918449        0.05502974        0.00811426
      20         -0.428780        2.000000        0.10433797        0.00969454        0.06185944        0.00532531
      21         -0.428459        2.000000        0.10897480        0.00632999        0.06050245        0.00775004
      22         -0.427474        2.000000        0.10998394        0.00761880        0.06110792        0.00469787
      23         -0.426749        2.000000        0.10687557        0.00675989        0.06221116        0.00856589
      24         -0.425004        2.000000        0.10676162        0.00786930        0.05951653        0.00529396
      25         -0.423198        2.000000        0.11471904        0.00472659        0.05701595        0.00939718
      26         -0.421558        2.000000        0.11010557        0.01027026        0.05592009        0.00499837
      27         -0.420598        2.000000        0.11378810        0.00679483        0.05674320        0.00716438
      28         -0.419276        2.000000        0.11405932        0.00527874        0.05523001        0.01039281
      29         -0.418677        2.000000        0.11222557        0.00797240        0.05689696        0.00810774
      30         -0.418103        2.000000        0.11391468        0.00694065        0.06040650        0.00681541
      31         -0.416485        2.000000        0.10984064        0.00787057        0.05653073        0.00657626
      32         -0.412590        2.000000        0.11736857        0.00519296        0.05603551        0.00974332
      33         -0.376454        2.000000        0.16054307        0.00609342        0.04070638        0.01448060
      34         -0.373826        2.000000        0.16048892        0.00680717        0.04138812        0.01259419
      35         -0.371955        2.000000        0.16475931        0.01544714        0.03878570        0.00441552
      36         -0.367137        2.000000        0.17923416        0.00619661        0.03979679        0.00707466
      37         -0.365564        2.000000        0.15786613        0.00880273        0.04034258        0.00486082
      38         -0.364636        2.000000        0.17412320        0.00621085        0.04124966        0.00589797
      39         -0.363751        2.000000        0.15245888        0.00441931        0.03707448        0.00995491
      40         -0.363126        2.000000        0.16123774        0.00619470        0.04320066        0.00548154
      41         -0.360626        2.000000        0.17651426        0.00430737        0.04014371        0.00747193
      42         -0.360487        2.000000        0.17937155        0.00531421        0.04211475        0.00361556
      43         -0.357347        2.000000        0.17438243        0.00810234        0.04316177        0.00477212
      44         -0.357053        2.000000        0.17697222        0.00418192        0.04356180        0.00722586
      45         -0.356731        2.000000        0.18660743        0.00421487        0.04047124        0.00521339
      46         -0.356365        2.000000        0.18319552        0.00546659        0.04140882        0.00527374
      47         -0.354367        2.000000        0.18110128        0.00538186        0.03979149        0.00523446
      48         -0.353250        2.000000        0.17699438        0.00479965        0.03959372        0.00649703
      49         -0.352170        2.000000        0.17670407        0.00662425        0.04210255        0.00650979
      50         -0.350286        2.000000        0.18493579        0.00418261        0.03729218        0.00673989
      51         -0.340727        2.000000        0.29525060        0.00305393        0.02740342        0.00321972
      52         -0.336146        2.000000        0.30132729        0.00509626        0.02487826        0.00225700
      53         -0.334057        2.000000        0.30940403        0.00152603        0.01749489        0.00275660
      54         -0.332265        2.000000        0.30189050        0.00263051        0.01875752        0.00387632
      55         -0.331022        2.000000        0.30275041        0.00286034        0.02011864        0.00359876
      56         -0.329283        2.000000        0.29640614        0.00183573        0.02030174        0.00507844
      57         -0.328531        2.000000        0.30101400        0.00300771        0.02341903        0.00187660
      58         -0.322560        2.000000        0.29546799        0.00185844        0.04126789        0.00229867
      59         -0.321431        2.000000        0.28245684        0.00284292        0.04404255        0.00221724
      60         -0.319531        2.000000        0.28385694        0.00284806        0.04780760        0.00259353
      61         -0.319303        2.000000        0.29061291        0.00156790        0.04866380        0.00411183
      62         -0.318938        2.000000        0.28004522        0.00172225        0.04782657        0.00277675
      63         -0.315781        2.000000        0.28040627        0.00297491        0.05077192        0.00267366
      64         -0.309531        2.000000        0.29411656        0.00209811        0.05103109        0.00218036
      65         -0.244271        2.000000        0.23094900        0.01050778        0.00229762        0.02657369
      66         -0.243640        2.000000        0.23543216        0.00805523        0.00158514        0.02562978
      67         -0.240883        2.000000        0.21865590        0.02462726        0.00147762        0.01016461
      68         -0.238481        2.000000        0.20625519        0.01531766        0.00509171        0.02781841
      69         -0.236386        2.000000        0.20101685        0.01911269        0.00464601        0.02387268
      70         -0.234826        2.000000        0.20412630        0.02296820        0.00469691        0.02232650
      71         -0.233298        2.000000        0.18222752        0.01796488        0.00297775        0.02309869
      72         -0.231574        2.000000        0.22531243        0.01658123        0.00330560        0.02282437
      73         -0.230618        2.000000        0.20481130        0.01443687        0.00247659        0.02695600
      74         -0.228783        2.000000        0.19696299        0.01552464        0.00355347        0.02339711
      75         -0.228286        2.000000        0.21908330        0.02088215        0.00350841        0.01202603
      76         -0.227733        2.000000        0.19585495        0.01773035        0.00397048        0.02278649
      77         -0.225810        2.000000        0.18695799        0.01628692        0.00415911        0.01566394
      78         -0.224496        2.000000        0.17053000        0.01823688        0.00403817        0.01714115
      79         -0.223260        2.000000        0.18198139        0.01620410        0.00451282        0.01930131
      80         -0.222336        2.000000        0.19471569        0.01273972        0.00782581        0.01964190
      81         -0.222189        2.000000        0.20472368        0.01647098        0.00559309        0.01129626
      82         -0.220508        2.000000        0.20395837        0.02539737        0.00376903        0.01058174
      83         -0.219907        2.000000        0.17589111        0.02201297        0.00496493        0.01492733
      84         -0.218620        2.000000        0.17999767        0.01999011        0.00521426        0.01601816
      85         -0.218392        2.000000        0.15072905        0.01256256        0.00482170        0.02339993
      86         -0.217550        2.000000        0.17263692        0.01738834        0.00718866        0.01889507
      87         -0.217450        2.000000        0.16446561        0.01960905        0.00452568        0.02104838
      88         -0.216596        2.000000        0.19647853        0.01772411        0.00372206        0.01592613
      89         -0.215551        2.000000        0.20108007        0.01988042        0.00516227        0.01920110
      90         -0.215145        2.000000        0.16845601        0.01850931        0.00456431        0.01348936
      91         -0.213987        2.000000        0.20512532        0.01737756        0.00732189        0.01396002
      92         -0.213207        2.000000        0.25407515        0.01668020        0.00894480        0.01380970
      93         -0.212507        2.000000        0.20935739        0.01484564        0.00623329        0.01859648
      94         -0.212147        2.000000        0.15371145        0.01941454        0.00703585        0.01830544
      95         -0.210783        2.000000        0.22331733        0.01063313        0.00635855        0.01796970
      96         -0.210201        2.000000        0.23263783        0.01503264        0.00551125        0.01626481
      97         -0.209676        2.000000        0.25550553        0.01204496        0.00579956        0.01722918
      98         -0.209204        2.000000        0.22937897        0.01546101        0.00645562        0.01533339
      99         -0.207032        2.000000        0.21670707        0.01086980        0.00830389        0.01727801
     100         -0.206826        2.000000        0.26120608        0.01352235        0.00716885        0.01455662
     101         -0.206444        2.000000        0.22126356        0.02053125        0.00672342        0.01280390
     102         -0.206061        2.000000        0.27168024        0.00989528        0.01055939        0.01253059
     103         -0.204577        2.000000        0.24190767        0.01575398        0.00706948        0.01505217
     104         -0.203501        2.000000        0.25650440        0.01276915        0.00659067        0.01319641
     105         -0.203088        2.000000        0.22838399        0.01587821        0.00793202        0.01215993
     106         -0.202590        2.000000        0.21973519        0.01171042        0.00450583        0.01933137
     107         -0.201942        2.000000        0.22669797        0.01491065        0.00689281        0.01549989
     108         -0.201072        2.000000        0.20249022        0.01745094        0.00700063        0.01434473
     109         -0.200249        2.000000        0.26016579        0.01160069        0.01040978        0.01213490
     110         -0.199937        2.000000        0.24881698        0.01268674        0.01041296        0.01469282
     111         -0.198437        2.000000        0.22184914        0.01545573        0.00875451        0.01438512
     112         -0.197970        2.000000        0.20580343        0.01284765        0.00572779        0.01969633
     113         -0.197174        2.000000        0.21679422        0.01685080        0.00554239        0.01275809
     114         -0.196508        2.000000        0.23817871        0.01430954        0.00959738        0.01450172
     115         -0.195619        2.000000        0.19527885        0.01288305        0.00726549        0.01860281
     116         -0.195052        2.000000        0.22990952        0.01366850        0.00564169        0.01402632
     117         -0.194501        2.000000        0.22514841        0.01751460        0.00738325        0.00901563
     118         -0.194139        2.000000        0.25526749        0.01567217        0.00747066        0.01024860
     119         -0.192829        2.000000        0.23101798        0.01563718        0.00803115        0.01346756
     120         -0.191914        2.000000        0.19874884        0.02132736        0.00671655        0.01412254
     121         -0.191393        2.000000        0.26559456        0.01602206        0.00472530        0.01300020
     122         -0.190370        2.000000        0.22528467        0.01476887        0.00641240        0.01636642
     123         -0.189628        2.000000        0.24742556        0.01222810        0.00591103        0.01583982
     124         -0.188561        2.000000        0.26452373        0.01084367        0.00858650        0.01550437
     125         -0.186553        2.000000        0.18497034        0.01647527        0.00535475        0.01906014
     126         -0.184126        2.000000        0.22497061        0.01741333        0.00766129        0.01345743
     127         -0.183568        2.000000        0.25527341        0.01427746        0.00550841        0.01279225
     128         -0.181839        2.000000        0.33774394        0.00836249        0.00750153        0.00979528
     129         -0.179613        2.000000        0.25649275        0.01296449        0.00843848        0.01470009
     130         -0.178834        2.000000        0.27520346        0.01175858        0.00681942        0.01134274
     131         -0.178071        2.000000        0.27612187        0.01724311        0.00751357        0.00678456
     132         -0.176274        2.000000        0.24758461        0.01687979        0.01094297        0.00927288
     133         -0.174735        2.000000        0.27206554        0.01223521        0.01029014        0.01516120
     134         -0.173702        2.000000        0.21382725        0.01241769        0.00822268        0.02054798
     135         -0.172459        2.000000        0.26188104        0.01169646        0.01025382        0.01469107
     136         -0.169267        2.000000        0.26791836        0.01528869        0.01184501        0.01019130
     137         -0.169030        2.000000        0.07279281        0.02349988        0.00372009        0.01743118
     138         -0.168235        2.000000        0.27812469        0.01090049        0.01238494        0.01289680
     139         -0.167589        2.000000        0.19852909        0.02131953        0.00852543        0.01102454
     140         -0.166165        2.000000        0.10068727        0.00857089        0.00364602        0.03012447
     141         -0.163879        2.000000        0.03111300        0.03279034        0.00170956        0.01071196
     142         -0.154237        2.000000        0.01576261        0.00403932        0.00171115        0.03747934
     143         -0.149316        2.000000        0.00576778        0.02860220        0.00127028        0.01448693
     144         -0.148111        2.000000        0.01124036        0.03330208        0.00170930        0.00988238
     145         -0.146363        2.000000        0.00683076        0.03165277        0.00116111        0.01056933
     146         -0.145681        2.000000        0.00828395        0.02475342        0.00181312        0.01802003
     147         -0.141418        2.000000        0.00443134        0.00953914        0.00137770        0.03802692
     148         -0.140720        2.000000        0.00750435        0.00537692        0.00181166        0.03959565
     149         -0.137715        2.000000        0.01046597        0.03922842        0.00299924        0.01217832
     150         -0.135466        2.000000        0.00988232        0.03972137        0.00269038        0.01238732
     151         -0.123003        2.000000        0.00402522        0.00734233        0.00153170        0.04101892
     152         -0.119803        2.000000        0.00249745        0.00138446        0.00093896        0.03672671
     153         -0.118283        2.000000        0.00399664        0.03421633        0.00219094        0.01474140
     154         -0.117818        2.000000        0.00310935        0.03877705        0.00089568        0.00281191
     155         -0.116825        2.000000        0.00288536        0.01800313        0.00119005        0.03084620
     156         -0.114344        2.000000        0.00516708        0.03703750        0.00178962        0.01245215
     157         -0.110930        2.000000        0.00336527        0.02486930        0.00189750        0.02598936
     158         -0.109323        2.000000        0.00347847        0.03498876        0.00168513        0.01588453
     159         -0.084028        2.000000        0.00344784        0.00149452        0.00070941        0.04439829
     160         -0.077658        2.000000        0.00311337        0.04704250        0.00097252        0.00155931
     161         -0.046854        0.000000        0.03096686        0.00168961        0.01400873        0.00192241
     162         -0.043241        0.000000        0.00538336        0.00649529        0.01420260        0.00706342
     163         -0.041067        0.000000        0.00532408        0.00886386        0.01259466        0.00998381
     164         -0.038660        0.000000        0.00579492        0.00961397        0.01400219        0.01123474
     165         -0.036159        0.000000        0.01212549        0.00313215        0.01356551        0.00266552
     166         -0.030580        0.000000        0.01339111        0.02105641        0.01401840        0.00842871
     167         -0.029383        0.000000        0.01418947        0.01165373        0.01193127        0.02067033
     168         -0.025464        0.000000        0.01471887        0.01073614        0.01402511        0.02342396
     169         -0.023736        0.000000        0.01466098        0.01299668        0.01558312        0.02090066
     170         -0.022030        0.000000        0.01656480        0.01010436        0.01768700        0.02151976
     171         -0.021521        0.000000        0.01426072        0.01342711        0.01746153        0.01633505
     172         -0.018515        0.000000        0.01391653        0.02057800        0.01730288        0.01906651
     173         -0.017685        0.000000        0.01457114        0.02290966        0.01476250        0.01465618
     174         -0.016286        0.000000        0.02021472        0.02351878        0.01872977        0.01268725
     175         -0.004433        0.000000        0.00967038        0.01843095        0.02148350        0.03161349
     176         -0.000030        0.000000        0.01169461        0.03592218        0.02363018        0.01425953
     177          0.000530        0.000000        0.01226206        0.02642396        0.02016232        0.02807985
     178          0.004566        0.000000        0.01145774        0.02054009        0.02467080        0.02773456
     179          0.005202        0.000000        0.01400830        0.02307485        0.02572691        0.02624495
     180          0.007444        0.000000        0.01994357        0.01730751        0.03177808        0.03077563
     181          0.020799        0.000000        0.03343183        0.02990118        0.03086532        0.08374253
     182          0.022147        0.000000        0.04845745        0.06284101        0.04499722        0.08923372
     183          0.023450        0.000000        0.06145694        0.05790021        0.05424627        0.09641900
     184          0.025487        0.000000        0.01717505        0.03354048        0.01429088        0.05110124
     185          0.029909        0.000000        0.08011109        0.14643611        0.06028743        0.04854204
     186          0.033648        0.000000        0.07908085        0.07845952        0.04808114        0.07612133
     187          0.038417        0.000000        0.07423150        0.04450500        0.05546220        0.10864831
     188          0.040730        0.000000        0.06729839        0.05662139        0.04850907        0.08487518
     189          0.041788        0.000000        0.06759568        0.04821965        0.05866428        0.10521243
     190          0.043737        0.000000        0.07499117        0.10438667        0.06583630        0.07035797
     191          0.045007        0.000000        0.07607846        0.05947800        0.04806155        0.09643249
     192          0.046198        0.000000        0.07343692        0.07263988        0.04523640        0.07515294
     193          0.051129        0.000000        0.06297332        0.09584650        0.04950055        0.07186196
     194          0.053163        0.000000        0.06263466        0.08894665        0.06558493        0.09149198
     195          0.054094        0.000000        0.07599677        0.10170790        0.06312729        0.06850214
     196          0.055062        0.000000        0.07362805        0.09924080        0.06572967        0.05026191
     197          0.056275        0.000000        0.06855108        0.06879084        0.05193662        0.06320525
     198          0.058406        0.000000        0.05363877        0.08693122        0.05520937        0.04918383
     199          0.060623        0.000000        0.05203421        0.07157711        0.05274736        0.05326872
     200          0.061591        0.000000        0.10382922        0.05515115        0.06444570        0.06457495
     201          0.063585        0.000000        0.07070804        0.06913744        0.05681828        0.06750427
     202          0.065688        0.000000        0.05639793        0.06632888        0.03567882        0.04470431
     203          0.065997        0.000000        0.07728443        0.05420906        0.05407694        0.06637392
     204          0.066743        0.000000        0.09554765        0.04153282        0.04686140        0.05855296
     205          0.068428        0.000000        0.07190848        0.03524438        0.03793681        0.06551712
     206          0.070184        0.000000        0.06708557        0.04510161        0.04210013        0.07719429
     207          0.070641        0.000000        0.08870545        0.06170941        0.04732438        0.04609013
     208          0.071689        0.000000        0.09033545        0.04942624        0.04682970        0.04517667
     209          0.072689        0.000000        0.05547030        0.05018828        0.03414879        0.05719917
     210          0.073230        0.000000        0.09070289        0.03714015        0.03676069        0.05417499
