# Projected DOS for atomic kind H at iteration step i = 0, E(Fermi) =    -0.077826 a.u.
#     MO Eigenvalue [a.u.]      Occupation                 s                py                pz                px
       1         -0.499993        2.000000        0.10671123        0.00132116        0.08146327        0.00083936
       2         -0.486364        2.000000        0.14741087        0.00072996        0.11681503        0.00035890
       3         -0.481915        2.000000        0.10062030        0.00549884        0.07271912        0.00772259
       4         -0.479773        2.000000        0.09598340        0.00862145        0.07367995        0.00383966
       5         -0.475800        2.000000        0.09983765        0.00307933        0.07511536        0.00943480
       6         -0.474302        2.000000        0.10673337        0.00613448        0.06981206        0.00790507
       7         -0.472373        2.000000        0.10034650        0.01267906        0.07084521        0.00135882
       8         -0.470240        2.000000        0.10881581        0.00777697        0.08534915        0.00407630
       9         -0.467469        2.000000        0.10284354        0.00509673        0.06894441        0.01042752
      10         -0.464808        2.000000        0.10682904        0.00401752        0.08593847        0.00819301
      11         -0.463897        2.000000        0.10932965        0.00497347        0.08348454        0.00779425
      12         -0.463054        2.000000        0.10840414        0.00530414        0.08572079        0.00732747
      13         -0.459104        2.000000        0.11408371        0.00581611        0.08108133        0.00685360
      14         -0.456772        2.000000        0.11095371        0.01131336        0.07692292        0.00346176
      15         -0.439602        2.000000        0.10578229        0.01093365        0.06156599        0.00557916
      16         -0.436567        2.000000        0.10375912        0.00460151        0.06031605        0.01314565
      17         -0.432968        2.000000        0.10621343        0.00477852        0.05857862        0.01256671
      18         -0.432234        2.000000        0.10828526        0.01014125        0.05902392        0.00828651
      19         -0.430475        2.000000        0.11082981        0.00988641        0.05879157        0.00715864
      20         -0.429737        2.000000        0.11355284        0.00967453        0.05848427        0.00668541
      21         -0.427427        2.000000        0.10966612        0.00691875        0.05940123        0.00459576
      22         -0.427201        2.000000        0.10351370        0.00787057        0.06237848        0.00783479
      23         -0.425882        2.000000        0.10952916        0.00821173        0.06032057        0.00699846
      24         -0.424109        2.000000        0.10544935        0.00806111        0.06001203        0.00568886
      25         -0.421224        2.000000        0.11230668        0.00791936        0.05665062        0.00582533
      26         -0.420776        2.000000        0.10937596        0.00829632        0.05441759        0.00632970
      27         -0.418843        2.000000        0.11057170        0.00465502        0.05555099        0.00853978
      28         -0.418052        2.000000        0.11018934        0.00502769        0.05900797        0.01200919
      29         -0.417605        2.000000        0.10773999        0.00743686        0.05367950        0.00677148
      30         -0.416749        2.000000        0.11167902        0.00569478        0.05851133        0.00840934
      31         -0.416354        2.000000        0.10985593        0.00934291        0.05728378        0.00428066
      32         -0.412420        2.000000        0.11606706        0.00592402        0.05517960        0.00807570
      33         -0.376712        2.000000        0.16139548        0.00515836        0.04247942        0.01529458
      34         -0.374033        2.000000        0.16089544        0.00592113        0.04137835        0.01319259
      35         -0.371673        2.000000        0.16721851        0.01726840        0.03827357        0.00317417
      36         -0.368010        2.000000        0.19489166        0.00644041        0.04052482        0.00572686
      37         -0.364609        2.000000        0.16418798        0.00631196        0.04149325        0.00698078
      38         -0.364277        2.000000        0.17683117        0.00657715        0.04012491        0.00670815
      39         -0.363327        2.000000        0.15838603        0.00833603        0.03613248        0.00589655
      40         -0.362628        2.000000        0.14780686        0.00499808        0.03940604        0.00985087
      41         -0.361508        2.000000        0.17660990        0.00595869        0.04145022        0.00481465
      42         -0.360476        2.000000        0.17631383        0.00519718        0.04410231        0.00493841
      43         -0.357485        2.000000        0.17921737        0.00273609        0.04177231        0.00778963
      44         -0.356829        2.000000        0.17233613        0.00690875        0.04404479        0.00571899
      45         -0.355666        2.000000        0.18325829        0.00585696        0.04284771        0.00471809
      46         -0.353549        2.000000        0.17424175        0.00630805        0.03852514        0.00547777
      47         -0.353105        2.000000        0.17855978        0.00517235        0.03908759        0.00758091
      48         -0.351746        2.000000        0.18194770        0.00436489        0.04049731        0.00454526
      49         -0.350869        2.000000        0.17095176        0.00677680        0.04030500        0.00612912
      50         -0.349795        2.000000        0.18290261        0.00453682        0.03734475        0.00571464
      51         -0.341445        2.000000        0.29337574        0.00390209        0.02641055        0.00364980
      52         -0.335618        2.000000        0.30547514        0.00522697        0.02020525        0.00131889
      53         -0.334591        2.000000        0.31513673        0.00318723        0.01908907        0.00263560
      54         -0.332320        2.000000        0.29578228        0.00235036        0.02297179        0.00543833
      55         -0.330556        2.000000        0.29826791        0.00206978        0.02308201        0.00408290
      56         -0.328025        2.000000        0.29750580        0.00382923        0.02389184        0.00451506
      57         -0.327747        2.000000        0.30170253        0.00236001        0.02009163        0.00262038
      58         -0.321949        2.000000        0.28512129        0.00273669        0.04324063        0.00251187
      59         -0.320323        2.000000        0.28597522        0.00174139        0.04602728        0.00258383
      60         -0.319711        2.000000        0.28488196        0.00226083        0.04649302        0.00336787
      61         -0.318089        2.000000        0.28314609        0.00216229        0.04911316        0.00288171
      62         -0.317078        2.000000        0.28095084        0.00143578        0.04854833        0.00245182
      63         -0.314862        2.000000        0.27811027        0.00342635        0.04554202        0.00131271
      64         -0.311311        2.000000        0.30339591        0.00125664        0.05185362        0.00107188
      65         -0.244914        2.000000        0.23567945        0.00746854        0.00149111        0.02367560
      66         -0.243035        2.000000        0.23084291        0.01098317        0.00193632        0.02859581
      67         -0.239491        2.000000        0.21875230        0.02356862        0.00240412        0.01262717
      68         -0.237747        2.000000        0.20841882        0.01521456        0.00464156        0.02817251
      69         -0.235392        2.000000        0.20604256        0.02414024        0.00377103        0.02243558
      70         -0.234353        2.000000        0.20033795        0.02330359        0.00428959        0.02156281
      71         -0.232891        2.000000        0.20250247        0.01625925        0.00325672        0.02403515
      72         -0.231013        2.000000        0.21685040        0.01537088        0.00327069        0.02516534
      73         -0.229796        2.000000        0.20504179        0.01502542        0.00343906        0.02211567
      74         -0.228828        2.000000        0.21408257        0.01679244        0.00407347        0.01727916
      75         -0.228236        2.000000        0.19807950        0.01396234        0.00232198        0.02179430
      76         -0.227216        2.000000        0.18509472        0.01897870        0.00373847        0.02150964
      77         -0.225186        2.000000        0.19529660        0.01819791        0.00427660        0.01411260
      78         -0.222770        2.000000        0.19232978        0.01544313        0.00460734        0.01494036
      79         -0.222559        2.000000        0.17149814        0.01544689        0.00498518        0.01845922
      80         -0.221878        2.000000        0.19784218        0.02175557        0.00611447        0.01083180
      81         -0.221192        2.000000        0.21009053        0.01260932        0.00591553        0.01917119
      82         -0.219609        2.000000        0.14940744        0.02462977        0.00358335        0.01536713
      83         -0.219019        2.000000        0.18658992        0.02061544        0.00434953        0.01316408
      84         -0.218250        2.000000        0.17097133        0.01265329        0.00806002        0.02418835
      85         -0.218096        2.000000        0.18703969        0.01857540        0.00505542        0.02026624
      86         -0.216926        2.000000        0.18507751        0.01882272        0.00525536        0.01409105
      87         -0.216603        2.000000        0.17516370        0.02042767        0.00264157        0.01611263
      88         -0.215938        2.000000        0.14820533        0.02222232        0.00427403        0.01584312
      89         -0.215375        2.000000        0.20839950        0.02114841        0.00554470        0.01714138
      90         -0.214313        2.000000        0.17647081        0.02157242        0.01123162        0.01344997
      91         -0.213668        2.000000        0.23790569        0.01183505        0.00355505        0.01462038
      92         -0.212822        2.000000        0.19583306        0.01222684        0.00980196        0.02213959
      93         -0.212368        2.000000        0.23555562        0.01722812        0.00874039        0.01510877
      94         -0.211460        2.000000        0.16359067        0.02840458        0.00684324        0.01044896
      95         -0.210845        2.000000        0.20137066        0.01312503        0.00578128        0.01608739
      96         -0.210332        2.000000        0.24508031        0.01074065        0.00563057        0.02032294
      97         -0.209911        2.000000        0.22111926        0.01411532        0.00494522        0.01675498
      98         -0.208472        2.000000        0.27361638        0.01433370        0.00973158        0.01137859
      99         -0.207782        2.000000        0.28724827        0.00680191        0.01008956        0.01341389
     100         -0.206847        2.000000        0.23333518        0.01050792        0.00791361        0.01704175
     101         -0.206775        2.000000        0.19995114        0.02195277        0.00421078        0.01759525
     102         -0.205701        2.000000        0.22023321        0.01742347        0.00789142        0.01409733
     103         -0.204872        2.000000        0.25129529        0.00896165        0.00506290        0.01705116
     104         -0.203390        2.000000        0.26143383        0.01269151        0.00835314        0.01351380
     105         -0.203061        2.000000        0.25031235        0.01147617        0.00718759        0.01157986
     106         -0.202549        2.000000        0.21227401        0.01449505        0.00701742        0.01884334
     107         -0.202120        2.000000        0.24191194        0.01276503        0.00639234        0.01344076
     108         -0.200516        2.000000        0.24205925        0.01075551        0.00994764        0.01407984
     109         -0.199837        2.000000        0.23831537        0.01396291        0.00767834        0.01323976
     110         -0.199333        2.000000        0.24880683        0.01467967        0.00955884        0.01171057
     111         -0.198386        2.000000        0.21584155        0.01171113        0.00881397        0.01876615
     112         -0.197775        2.000000        0.17782294        0.01885366        0.00461940        0.02132992
     113         -0.197399        2.000000        0.25027686        0.01642829        0.00679383        0.01027373
     114         -0.196308        2.000000        0.22249846        0.01277937        0.00622866        0.01475384
     115         -0.195258        2.000000        0.22267322        0.01429178        0.00934353        0.01459816
     116         -0.194403        2.000000        0.22561489        0.01093169        0.00750210        0.01614879
     117         -0.194195        2.000000        0.23160854        0.01825140        0.01022485        0.00955377
     118         -0.193196        2.000000        0.24254381        0.01497119        0.00542977        0.01457723
     119         -0.192714        2.000000        0.21522483        0.01713929        0.00720271        0.01256429
     120         -0.191732        2.000000        0.20700722        0.01979563        0.00514125        0.01219665
     121         -0.190947        2.000000        0.25154444        0.01943365        0.00846992        0.01104232
     122         -0.190206        2.000000        0.23065785        0.01525107        0.00581066        0.01482989
     123         -0.188575        2.000000        0.25248258        0.01143515        0.00687935        0.01969958
     124         -0.188018        2.000000        0.29901861        0.01087860        0.00658762        0.01267121
     125         -0.187088        2.000000        0.19673536        0.01493021        0.00571196        0.01767897
     126         -0.184927        2.000000        0.23350108        0.01487260        0.00764736        0.01421789
     127         -0.183511        2.000000        0.24180374        0.01343881        0.00729679        0.01586691
     128         -0.182365        2.000000        0.30692342        0.01077980        0.00746749        0.00951533
     129         -0.180289        2.000000        0.23795736        0.01134615        0.00723725        0.01615389
     130         -0.178107        2.000000        0.29027990        0.01174687        0.00786177        0.01118861
     131         -0.176748        2.000000        0.28622292        0.01826422        0.00741647        0.00650031
     132         -0.175907        2.000000        0.28408059        0.01394211        0.01132770        0.01175020
     133         -0.173835        2.000000        0.20706631        0.01863302        0.01059696        0.01332561
     134         -0.172439        2.000000        0.23681087        0.01149622        0.01049550        0.01870097
     135         -0.171874        2.000000        0.24534758        0.01505670        0.00988921        0.01359841
     136         -0.169404        2.000000        0.30942000        0.01019585        0.01603634        0.01053504
     137         -0.168621        2.000000        0.19955852        0.02055584        0.00918251        0.01471827
     138         -0.167958        2.000000        0.20883345        0.01740942        0.01034473        0.01299029
     139         -0.167344        2.000000        0.09099285        0.02657895        0.00447616        0.01180118
     140         -0.166015        2.000000        0.07584429        0.00434873        0.00292896        0.03419532
     141         -0.163289        2.000000        0.02254539        0.03254265        0.00151732        0.01011821
     142         -0.153824        2.000000        0.00957758        0.00401518        0.00138033        0.03696298
     143         -0.148747        2.000000        0.00436615        0.02787194        0.00103422        0.01462587
     144         -0.146958        2.000000        0.00939061        0.03139590        0.00201989        0.01097275
     145         -0.145592        2.000000        0.00895391        0.02781123        0.00187393        0.01266680
     146         -0.145332        2.000000        0.00801584        0.02939136        0.00120098        0.01193175
     147         -0.141019        2.000000        0.00631634        0.00769522        0.00160441        0.04182060
     148         -0.140358        2.000000        0.00698963        0.00664867        0.00176194        0.03683325
     149         -0.137351        2.000000        0.01006926        0.03894921        0.00303480        0.01250536
     150         -0.134664        2.000000        0.01434521        0.03929458        0.00392545        0.01213661
     151         -0.122331        2.000000        0.00377079        0.00764885        0.00164901        0.04180967
     152         -0.119486        2.000000        0.00213734        0.00053023        0.00082739        0.03614841
     153         -0.117726        2.000000        0.00486818        0.03277385        0.00243273        0.01647364
     154         -0.116820        2.000000        0.00297118        0.03901568        0.00105273        0.00122729
     155         -0.116475        2.000000        0.00311965        0.01787204        0.00111787        0.03262889
     156         -0.114177        2.000000        0.00535434        0.03760825        0.00192567        0.01207703
     157         -0.110650        2.000000        0.00337399        0.02326963        0.00216468        0.02741546
     158         -0.108836        2.000000        0.00426082        0.03665373        0.00184155        0.01508812
     159         -0.083202        2.000000        0.00355066        0.00138225        0.00087985        0.04566747
     160         -0.077826        2.000000        0.00351636        0.04716478        0.00084571        0.00171899
     161         -0.045724        0.000000        0.02963436        0.00205776        0.01373601        0.00192699
     162         -0.042386        0.000000        0.00611158        0.00682127        0.01444164        0.00672904
     163         -0.040272        0.000000        0.00539286        0.00907917        0.01287381        0.01026192
     164         -0.037952        0.000000        0.00531161        0.00846036        0.01349032        0.01157248
     165         -0.035811        0.000000        0.01221700        0.00333300        0.01387979        0.00290720
     166         -0.029770        0.000000        0.01237379        0.02031349        0.01417950        0.01034445
     167         -0.028497        0.000000        0.01468940        0.01316168        0.01172782        0.01797589
     168         -0.024487        0.000000        0.01522316        0.00889581        0.01473189        0.02583426
     169         -0.023331        0.000000        0.01431816        0.01425899        0.01424666        0.01956724
     170         -0.021811        0.000000        0.01478847        0.01523469        0.01870044        0.02016774
     171         -0.021298        0.000000        0.01520326        0.01038960        0.01665922        0.01970724
     172         -0.018567        0.000000        0.01484868        0.01998079        0.01541520        0.02275679
     173         -0.017127        0.000000        0.01330268        0.02257304        0.01571147        0.01118705
     174         -0.015390        0.000000        0.02052316        0.02487231        0.02008838        0.01316577
     175         -0.004224        0.000000        0.00993861        0.01852639        0.02242654        0.03010720
     176          0.000298        0.000000        0.01323521        0.03610439        0.02419044        0.01685136
     177          0.000792        0.000000        0.01086682        0.02896605        0.02160272        0.02641295
     178          0.004656        0.000000        0.01225401        0.02053632        0.02492063        0.03107811
     179          0.005738        0.000000        0.01157067        0.02316686        0.02473448        0.02834869
     180          0.008397        0.000000        0.02021895        0.02130378        0.03412121        0.02494355
     181          0.020382        0.000000        0.06217502        0.04736360        0.05358927        0.12650301
     182          0.021016        0.000000        0.04367989        0.06108610        0.04031751        0.07135121
     183          0.024253        0.000000        0.04941976        0.05158357        0.04261733        0.07813647
     184          0.025271        0.000000        0.01019777        0.02355113        0.00768857        0.03948521
     185          0.029240        0.000000        0.07522413        0.14441714        0.05994979        0.05183350
     186          0.032387        0.000000        0.08075705        0.08075272        0.05170978        0.08172941
     187          0.037907        0.000000        0.07508665        0.04876670        0.05492284        0.10619473
     188          0.041194        0.000000        0.06992748        0.05989150        0.05591175        0.08392787
     189          0.041793        0.000000        0.07022994        0.05142976        0.05573775        0.10389395
     190          0.043760        0.000000        0.08111600        0.09038401        0.04972988        0.07365889
     191          0.045725        0.000000        0.06969023        0.08797904        0.04929003        0.07832733
     192          0.046487        0.000000        0.06949479        0.06085711        0.05021384        0.09506201
     193          0.051487        0.000000        0.06169937        0.12091117        0.05192973        0.03836046
     194          0.052704        0.000000        0.06120066        0.06188773        0.07198561        0.12171079
     195          0.054143        0.000000        0.07649690        0.09530578        0.05746755        0.06837438
     196          0.054842        0.000000        0.05938403        0.12343613        0.07399466        0.03846589
     197          0.055854        0.000000        0.07647327        0.08497663        0.05516555        0.05944981
     198          0.058571        0.000000        0.05912952        0.08911239        0.06203018        0.05861715
     199          0.060082        0.000000        0.06920657        0.07247135        0.04710032        0.04984143
     200          0.060943        0.000000        0.07251325        0.06059800        0.04928258        0.07502730
     201          0.063434        0.000000        0.11048914        0.05133451        0.06242684        0.06071687
     202          0.064994        0.000000        0.05832835        0.06881590        0.04092907        0.05233241
     203          0.066567        0.000000        0.07090999        0.04856496        0.05793778        0.06108292
     204          0.067776        0.000000        0.09523267        0.04238920        0.04587306        0.06138853
     205          0.068633        0.000000        0.07031380        0.04180174        0.04307054        0.05755716
     206          0.069512        0.000000        0.07946092        0.04969846        0.04507603        0.05965974
     207          0.070921        0.000000        0.09897338        0.04677085        0.04582686        0.05107924
     208          0.071238        0.000000        0.09500127        0.04676290        0.04551704        0.05608018
     209          0.072083        0.000000        0.09413966        0.04749522        0.04657762        0.07196158
     210          0.072722        0.000000        0.10143638        0.03541119        0.04025387        0.04535305
