# Projected DOS for atomic kind H at iteration step i = 0, E(Fermi) =    -0.077737 a.u.
#     MO Eigenvalue [a.u.]      Occupation                 s                py                pz                px
       1         -0.499961        2.000000        0.10648774        0.00125045        0.08135702        0.00081902
       2         -0.486793        2.000000        0.14805766        0.00066644        0.11701353        0.00034588
       3         -0.481623        2.000000        0.09900766        0.00595460        0.07245482        0.00714009
       4         -0.480049        2.000000        0.09708127        0.00786267        0.07394476        0.00455900
       5         -0.475850        2.000000        0.09976416        0.00322505        0.07491004        0.00920761
       6         -0.474148        2.000000        0.10553609        0.00628682        0.06848467        0.00761344
       7         -0.472409        2.000000        0.10159322        0.01259769        0.07055012        0.00164261
       8         -0.470696        2.000000        0.10811296        0.00776375        0.08649332        0.00371043
       9         -0.467595        2.000000        0.10368708        0.00528068        0.06720324        0.01056155
      10         -0.465592        2.000000        0.10604401        0.00375648        0.08748001        0.00831624
      11         -0.464491        2.000000        0.11026333        0.00449085        0.08484636        0.00779325
      12         -0.463182        2.000000        0.10846642        0.00551014        0.08596246        0.00744048
      13         -0.459463        2.000000        0.11416229        0.00573643        0.08131535        0.00691124
      14         -0.457275        2.000000        0.11230324        0.01157222        0.07693246        0.00341277
      15         -0.439417        2.000000        0.10529867        0.01104821        0.06140901        0.00545141
      16         -0.436775        2.000000        0.10307060        0.00465214        0.06031823        0.01278124
      17         -0.432843        2.000000        0.10781123        0.00496566        0.05937054        0.01079767
      18         -0.432184        2.000000        0.10585983        0.01015536        0.05813428        0.00944751
      19         -0.430426        2.000000        0.11007568        0.00965826        0.05774252        0.00769098
      20         -0.429387        2.000000        0.11295348        0.00924478        0.05867780        0.00656320
      21         -0.427794        2.000000        0.10416158        0.00750677        0.06067205        0.00656434
      22         -0.427271        2.000000        0.10849131        0.00737251        0.06196429        0.00534524
      23         -0.426144        2.000000        0.10830653        0.00791546        0.06060714        0.00752831
      24         -0.424394        2.000000        0.10531562        0.00782478        0.06015087        0.00544000
      25         -0.421778        2.000000        0.11239716        0.00493542        0.05699457        0.00838313
      26         -0.421302        2.000000        0.11050274        0.01097058        0.05454994        0.00466464
      27         -0.419581        2.000000        0.11196812        0.00509701        0.05607176        0.00795168
      28         -0.418228        2.000000        0.10879723        0.00657418        0.05554470        0.01014212
      29         -0.418119        2.000000        0.11132121        0.00670386        0.05643436        0.00870607
      30         -0.417190        2.000000        0.11195403        0.00632191        0.05987545        0.00736251
      31         -0.416538        2.000000        0.11025175        0.00844207        0.05675666        0.00534854
      32         -0.412499        2.000000        0.11651225        0.00561271        0.05550694        0.00876333
      33         -0.376480        2.000000        0.16046031        0.00557734        0.04193410        0.01494275
      34         -0.374056        2.000000        0.16129786        0.00606757        0.04134488        0.01299022
      35         -0.371723        2.000000        0.16644116        0.01654505        0.03864857        0.00358278
      36         -0.367566        2.000000        0.18949361        0.00644874        0.04003323        0.00627368
      37         -0.364541        2.000000        0.17545848        0.00586481        0.04185661        0.00759796
      38         -0.364002        2.000000        0.16059098        0.01075204        0.03708556        0.00311357
      39         -0.363860        2.000000        0.15350609        0.00461603        0.04059403        0.00805381
      40         -0.362921        2.000000        0.14845059        0.00502201        0.03947143        0.00969265
      41         -0.361208        2.000000        0.18106438        0.00569677        0.04014422        0.00465098
      42         -0.360453        2.000000        0.17667917        0.00488747        0.04360162        0.00527164
      43         -0.357432        2.000000        0.18004526        0.00285180        0.04273981        0.00768706
      44         -0.356891        2.000000        0.17106279        0.00705913        0.04423262        0.00560139
      45         -0.355754        2.000000        0.18438113        0.00576468        0.04206844        0.00460896
      46         -0.354455        2.000000        0.17611742        0.00645564        0.03865371        0.00534758
      47         -0.353201        2.000000        0.17958422        0.00480139        0.03941439        0.00686253
      48         -0.352691        2.000000        0.18090413        0.00471625        0.04051149        0.00503095
      49         -0.351282        2.000000        0.17203167        0.00683191        0.04091210        0.00645269
      50         -0.350402        2.000000        0.18542067        0.00404316        0.03746443        0.00629214
      51         -0.341018        2.000000        0.29459210        0.00362169        0.02648897        0.00352324
      52         -0.335672        2.000000        0.30594764        0.00515320        0.02011365        0.00129992
      53         -0.333698        2.000000        0.31415073        0.00322806        0.01794033        0.00203513
      54         -0.332723        2.000000        0.29573942        0.00193338        0.02275015        0.00590664
      55         -0.330652        2.000000        0.30097375        0.00231411        0.02196478        0.00392941
      56         -0.328363        2.000000        0.29723921        0.00178610        0.02035621        0.00533513
      57         -0.327808        2.000000        0.29989856        0.00394815        0.02321354        0.00163689
      58         -0.321895        2.000000        0.28540544        0.00306796        0.04262694        0.00206168
      59         -0.321451        2.000000        0.29082842        0.00165363        0.04405928        0.00238977
      60         -0.319908        2.000000        0.28450675        0.00173557        0.04721743        0.00450340
      61         -0.318302        2.000000        0.28162847        0.00251669        0.05154425        0.00267733
      62         -0.317735        2.000000        0.28206969        0.00131449        0.04821342        0.00256868
      63         -0.315473        2.000000        0.27973831        0.00330131        0.04686462        0.00150698
      64         -0.310959        2.000000        0.30095192        0.00157738        0.05203275        0.00138229
      65         -0.244626        2.000000        0.23584986        0.00746408        0.00168480        0.02386520
      66         -0.243518        2.000000        0.23167188        0.01077083        0.00182125        0.02817230
      67         -0.239930        2.000000        0.21837171        0.02334848        0.00209840        0.01201215
      68         -0.238134        2.000000        0.20885501        0.01514206        0.00485178        0.02815308
      69         -0.235767        2.000000        0.20326077        0.02166813        0.00392178        0.02320625
      70         -0.234460        2.000000        0.20066039        0.02484455        0.00454104        0.02116434
      71         -0.233061        2.000000        0.19582048        0.01657476        0.00318361        0.02391558
      72         -0.231198        2.000000        0.22078238        0.01535397        0.00326503        0.02470869
      73         -0.230192        2.000000        0.20618839        0.01520429        0.00296869        0.02332372
      74         -0.228748        2.000000        0.19906023        0.01511976        0.00431555        0.02180349
      75         -0.228478        2.000000        0.21327052        0.01644166        0.00227667        0.01710075
      76         -0.227503        2.000000        0.18787613        0.01867069        0.00385658        0.02214226
      77         -0.225452        2.000000        0.19073573        0.01836245        0.00438743        0.01415067
      78         -0.223374        2.000000        0.17833426        0.01904587        0.00377655        0.01438493
      79         -0.222887        2.000000        0.17332454        0.01312688        0.00562187        0.02068867
      80         -0.222050        2.000000        0.21695243        0.01906843        0.00581812        0.00963520
      81         -0.221570        2.000000        0.19976987        0.01318078        0.00645007        0.01940141
      82         -0.219785        2.000000        0.14831276        0.02572525        0.00366335        0.01517210
      83         -0.219021        2.000000        0.21238787        0.02055286        0.00464752        0.01208823
      84         -0.218563        2.000000        0.16983381        0.01195004        0.00763071        0.02239419
      85         -0.218032        2.000000        0.14883393        0.02102888        0.00463501        0.01820253
      86         -0.217380        2.000000        0.18033613        0.01913625        0.00334837        0.01895607
      87         -0.216918        2.000000        0.18557528        0.01820415        0.00455019        0.01764116
      88         -0.216313        2.000000        0.16328121        0.01913866        0.00465771        0.01707456
      89         -0.215353        2.000000        0.20369554        0.02125272        0.00569421        0.01793155
      90         -0.214655        2.000000        0.17351854        0.02056906        0.00743511        0.01202324
      91         -0.213904        2.000000        0.22147249        0.01510695        0.00603398        0.01397570
      92         -0.212781        2.000000        0.24248278        0.01417766        0.00913362        0.01637492
      93         -0.212552        2.000000        0.19931599        0.01538665        0.00947629        0.01911632
      94         -0.211679        2.000000        0.16625687        0.02488544        0.00585143        0.01267464
      95         -0.210897        2.000000        0.20577060        0.01333703        0.00636703        0.01591474
      96         -0.210458        2.000000        0.25367289        0.01125805        0.00562855        0.01977973
      97         -0.209773        2.000000        0.23007624        0.01298165        0.00494658        0.01743489
      98         -0.208475        2.000000        0.26991075        0.01330903        0.00711594        0.01321720
      99         -0.207449        2.000000        0.27430498        0.00833848        0.01124324        0.01246374
     100         -0.206890        2.000000        0.23087007        0.01251348        0.00700713        0.01733198
     101         -0.206631        2.000000        0.19482716        0.02325811        0.00555838        0.01564689
     102         -0.205812        2.000000        0.24846909        0.01498192        0.00835535        0.01302233
     103         -0.204724        2.000000        0.22687259        0.01103573        0.00523807        0.01868348
     104         -0.203136        2.000000        0.27851438        0.01344156        0.00812281        0.01062695
     105         -0.203091        2.000000        0.24615878        0.01227349        0.00723492        0.01154120
     106         -0.202678        2.000000        0.21111675        0.01421348        0.00601214        0.01870964
     107         -0.202422        2.000000        0.23340606        0.01226411        0.00637713        0.01593648
     108         -0.200532        2.000000        0.23261337        0.01552019        0.00616471        0.00973919
     109         -0.200313        2.000000        0.25339213        0.00982909        0.01176111        0.01743164
     110         -0.199588        2.000000        0.24062558        0.01438423        0.00947411        0.01237433
     111         -0.198178        2.000000        0.22058998        0.01255279        0.00933276        0.01778269
     112         -0.197892        2.000000        0.17459089        0.01702213        0.00479368        0.02132590
     113         -0.197142        2.000000        0.23706758        0.01682926        0.00612563        0.01089517
     114         -0.196347        2.000000        0.23014366        0.01346050        0.00702771        0.01533953
     115         -0.195165        2.000000        0.22688419        0.01307673        0.01065622        0.01452620
     116         -0.194554        2.000000        0.23193046        0.01114279        0.00750466        0.01571041
     117         -0.194066        2.000000        0.21537581        0.02049829        0.00772683        0.00916602
     118         -0.193646        2.000000        0.26557704        0.01205556        0.00641035        0.01265359
     119         -0.193089        2.000000        0.19860579        0.01826200        0.00615393        0.01395619
     120         -0.191700        2.000000        0.20939008        0.02035645        0.00590161        0.01246050
     121         -0.191069        2.000000        0.26306968        0.01881495        0.00675038        0.01047546
     122         -0.190301        2.000000        0.22391392        0.01521571        0.00672921        0.01579059
     123         -0.188850        2.000000        0.23621411        0.01179932        0.00596800        0.02064603
     124         -0.188151        2.000000        0.30565695        0.00953603        0.00776485        0.01248004
     125         -0.186877        2.000000        0.19615366        0.01554735        0.00539529        0.01801644
     126         -0.184851        2.000000        0.23824312        0.01462068        0.00737736        0.01412573
     127         -0.183426        2.000000        0.22826183        0.01687794        0.00694117        0.01473504
     128         -0.182459        2.000000        0.32404940        0.00846007        0.00751705        0.00939505
     129         -0.180118        2.000000        0.24208047        0.01111546        0.00758731        0.01632620
     130         -0.178333        2.000000        0.28553895        0.01194047        0.00748295        0.01120520
     131         -0.177290        2.000000        0.27291366        0.01892986        0.00724139        0.00629493
     132         -0.175458        2.000000        0.27869448        0.01601186        0.01148097        0.01082243
     133         -0.174274        2.000000        0.22649658        0.01626303        0.01028729        0.01383519
     134         -0.173051        2.000000        0.28263061        0.00927744        0.01158585        0.01479763
     135         -0.172298        2.000000        0.20604572        0.01512095        0.00875525        0.01803139
     136         -0.169457        2.000000        0.30194248        0.01149392        0.01444938        0.01029029
     137         -0.168615        2.000000        0.13316066        0.02180017        0.00657196        0.01667953
     138         -0.167968        2.000000        0.24778905        0.01469999        0.01203502        0.01263064
     139         -0.167580        2.000000        0.11989377        0.02558214        0.00552158        0.01185016
     140         -0.166091        2.000000        0.08875801        0.00608001        0.00321105        0.03227477
     141         -0.163535        2.000000        0.02525275        0.03261159        0.00158179        0.01026309
     142         -0.154046        2.000000        0.01159947        0.00405046        0.00152037        0.03730882
     143         -0.148970        2.000000        0.00473650        0.02809959        0.00110301        0.01477255
     144         -0.147384        2.000000        0.01012509        0.03232473        0.00194845        0.01028691
     145         -0.145893        2.000000        0.00900875        0.02999390        0.00162029        0.01086892
     146         -0.145543        2.000000        0.00765026        0.02673310        0.00147558        0.01509078
     147         -0.141178        2.000000        0.00514850        0.00893295        0.00146315        0.03922050
     148         -0.140502        2.000000        0.00768088        0.00565225        0.00186561        0.03881004
     149         -0.137455        2.000000        0.01012325        0.03897062        0.00301119        0.01237499
     150         -0.134911        2.000000        0.01305752        0.03936302        0.00351320        0.01217348
     151         -0.122545        2.000000        0.00388069        0.00749937        0.00161723        0.04148273
     152         -0.119667        2.000000        0.00226321        0.00060327        0.00087654        0.03645909
     153         -0.117868        2.000000        0.00460876        0.03334899        0.00239106        0.01574001
     154         -0.117206        2.000000        0.00305849        0.03922765        0.00099331        0.00148144
     155         -0.116580        2.000000        0.00293643        0.01778389        0.00109977        0.03222282
     156         -0.114233        2.000000        0.00527907        0.03747864        0.00187295        0.01210896
     157         -0.110707        2.000000        0.00338964        0.02371161        0.00209302        0.02697599
     158         -0.108969        2.000000        0.00399774        0.03610489        0.00176071        0.01529531
     159         -0.083468        2.000000        0.00353308        0.00142210        0.00082089        0.04519459
     160         -0.077737        2.000000        0.00337062        0.04716987        0.00087733        0.00167845
     161         -0.046183        0.000000        0.03013857        0.00189690        0.01378238        0.00193444
     162         -0.042757        0.000000        0.00578342        0.00664633        0.01427872        0.00684854
     163         -0.040601        0.000000        0.00539791        0.00905765        0.01271350        0.01015921
     164         -0.038261        0.000000        0.00545484        0.00885993        0.01359924        0.01147217
     165         -0.035922        0.000000        0.01222567        0.00327904        0.01384580        0.00281462
     166         -0.030130        0.000000        0.01275593        0.02064539        0.01413541        0.00967500
     167         -0.028905        0.000000        0.01458752        0.01249490        0.01178995        0.01906482
     168         -0.024842        0.000000        0.01507322        0.00945116        0.01445820        0.02513070
     169         -0.023558        0.000000        0.01439998        0.01378583        0.01459928        0.02002077
     170         -0.021833        0.000000        0.01565776        0.01284938        0.01860824        0.02130653
     171         -0.021508        0.000000        0.01465608        0.01207461        0.01672955        0.01789857
     172         -0.018525        0.000000        0.01450350        0.02013018        0.01576179        0.02205646
     173         -0.017370        0.000000        0.01367395        0.02261194        0.01552285        0.01165936
     174         -0.015708        0.000000        0.02061626        0.02443364        0.01976944        0.01306986
     175         -0.004276        0.000000        0.00981352        0.01851897        0.02210750        0.03062529
     176          0.000217        0.000000        0.01269834        0.03647914        0.02396267        0.01549481
     177          0.000699        0.000000        0.01142065        0.02762003        0.02129923        0.02764190
     178          0.004650        0.000000        0.01200458        0.02063433        0.02476322        0.03054115
     179          0.005623        0.000000        0.01215393        0.02304139        0.02509746        0.02713388
     180          0.008060        0.000000        0.02046598        0.01978520        0.03370589        0.02680594
     181          0.020570        0.000000        0.05020084        0.04044264        0.04363047        0.10776700
     182          0.021309        0.000000        0.04961632        0.06422178        0.04640248        0.08468802
     183          0.023860        0.000000        0.05300941        0.05181763        0.04529871        0.08399830
     184          0.025223        0.000000        0.01118254        0.02545926        0.00859645        0.04128914
     185          0.029450        0.000000        0.07714672        0.14636573        0.06021274        0.04987342
     186          0.032753        0.000000        0.07979294        0.08019431        0.04980311        0.07982771
     187          0.037901        0.000000        0.07645517        0.04810949        0.05557153        0.10661351
     188          0.041100        0.000000        0.06886954        0.05760686        0.05337809        0.08434503
     189          0.041678        0.000000        0.06848667        0.04982109        0.05686838        0.10557148
     190          0.043749        0.000000        0.08142161        0.09470584        0.05296649        0.07187049
     191          0.045442        0.000000        0.06684614        0.07706130        0.05011576        0.08774110
     192          0.046384        0.000000        0.07331373        0.06558991        0.04844437        0.08642606
     193          0.051495        0.000000        0.06510351        0.11566484        0.04959088        0.04556351
     194          0.052779        0.000000        0.05780921        0.06301991        0.07235597        0.12110841
     195          0.054236        0.000000        0.07708625        0.10305367        0.05480827        0.06499751
     196          0.054702        0.000000        0.06454627        0.11901063        0.07495641        0.03887889
     197          0.055861        0.000000        0.07680079        0.07628540        0.05435180        0.06095508
     198          0.058598        0.000000        0.05821085        0.08368963        0.05731864        0.05620640
     199          0.060037        0.000000        0.06347494        0.06669430        0.04744117        0.05180021
     200          0.061444        0.000000        0.08160922        0.06615449        0.05813867        0.07514454
     201          0.063085        0.000000        0.10016001        0.05982133        0.06272381        0.05912424
     202          0.065100        0.000000        0.05947898        0.06581399        0.03836591        0.04840386
     203          0.066341        0.000000        0.07019579        0.05068178        0.05598455        0.06142467
     204          0.067489        0.000000        0.09195001        0.04752575        0.04609742        0.06251029
     205          0.068595        0.000000        0.07097081        0.03790634        0.04238071        0.06295065
     206          0.069641        0.000000        0.07393354        0.05002984        0.04307950        0.06105051
     207          0.070924        0.000000        0.09649866        0.04261979        0.04382789        0.05198832
     208          0.071279        0.000000        0.08863549        0.05627691        0.04677338        0.04684429
     209          0.072339        0.000000        0.07123878        0.04429073        0.03781630        0.07039211
     210          0.072823        0.000000        0.10998308        0.03741477        0.04456587        0.05463479
