# Projected DOS for atomic kind H at iteration step i = 0, E(Fermi) =    -0.077977 a.u.
#     MO Eigenvalue [a.u.]      Occupation                 s                py                pz                px
       1         -0.500097        2.000000        0.10694888        0.00138782        0.08163505        0.00087186
       2         -0.485895        2.000000        0.14705387        0.00080040        0.11646773        0.00038624
       3         -0.482191        2.000000        0.10145051        0.00537874        0.07298094        0.00789472
       4         -0.479597        2.000000        0.09560221        0.00892897        0.07356720        0.00357074
       5         -0.475765        2.000000        0.09976896        0.00294915        0.07513510        0.00968451
       6         -0.474462        2.000000        0.10737534        0.00604909        0.07108977        0.00795329
       7         -0.472385        2.000000        0.09932861        0.01270684        0.07134093        0.00123554
       8         -0.469670        2.000000        0.10977092        0.00773889        0.08387626        0.00454417
       9         -0.467440        2.000000        0.10258029        0.00496530        0.07067510        0.01025094
      10         -0.464000        2.000000        0.10699529        0.00465064        0.08486239        0.00777423
      11         -0.463214        2.000000        0.10911799        0.00533214        0.08268421        0.00784053
      12         -0.462787        2.000000        0.10769690        0.00492372        0.08485009        0.00733982
      13         -0.458775        2.000000        0.11426568        0.00608125        0.08076205        0.00670318
      14         -0.456237        2.000000        0.10996867        0.01083287        0.07694044        0.00368528
      15         -0.439769        2.000000        0.10595340        0.01079702        0.06168644        0.00567277
      16         -0.436378        2.000000        0.10422611        0.00459269        0.06031402        0.01346016
      17         -0.433319        2.000000        0.10608438        0.00528297        0.05812495        0.01335994
      18         -0.432226        2.000000        0.10963588        0.00976942        0.05961385        0.00762175
      19         -0.430549        2.000000        0.11098617        0.00998745        0.05930193        0.00685077
      20         -0.430013        2.000000        0.11417828        0.00979966        0.05861313        0.00688302
      21         -0.427620        2.000000        0.11085178        0.00718267        0.06119854        0.00512387
      22         -0.426709        2.000000        0.10407801        0.00760006        0.05986554        0.00780042
      23         -0.425602        2.000000        0.11010058        0.00839504        0.06049383        0.00652299
      24         -0.423792        2.000000        0.10613226        0.00845000        0.05945055        0.00593194
      25         -0.420867        2.000000        0.11295971        0.00866584        0.05614564        0.00517458
      26         -0.420023        2.000000        0.10756236        0.00766525        0.05465874        0.00624412
      27         -0.418295        2.000000        0.11108536        0.00479781        0.05721165        0.01296393
      28         -0.417960        2.000000        0.10891467        0.00437027        0.05811216        0.00755028
      29         -0.417150        2.000000        0.10792352        0.00692888        0.05357535        0.00694469
      30         -0.416342        2.000000        0.11048889        0.00689837        0.05739131        0.00722960
      31         -0.415822        2.000000        0.10945379        0.00825931        0.05719739        0.00580819
      32         -0.412317        2.000000        0.11529815        0.00630144        0.05486248        0.00736125
      33         -0.376990        2.000000        0.16210271        0.00470519        0.04287014        0.01575744
      34         -0.374031        2.000000        0.16077621        0.00584528        0.04161896        0.01322813
      35         -0.371717        2.000000        0.16839879        0.01791970        0.03776279        0.00282532
      36         -0.368322        2.000000        0.19837589        0.00659007        0.04102941        0.00529352
      37         -0.364970        2.000000        0.16154061        0.00629313        0.04045071        0.00643985
      38         -0.364344        2.000000        0.18212192        0.00675298        0.04113105        0.00753674
      39         -0.363052        2.000000        0.17175441        0.00762068        0.03552666        0.00650196
      40         -0.362294        2.000000        0.14895964        0.00494025        0.03930574        0.00975019
      41         -0.361587        2.000000        0.16931857        0.00661846        0.04131145        0.00520080
      42         -0.360488        2.000000        0.17343106        0.00538957        0.04518251        0.00464726
      43         -0.357793        2.000000        0.17818825        0.00377458        0.04210374        0.00738497
      44         -0.356702        2.000000        0.17764042        0.00621772        0.04220003        0.00596374
      45         -0.355636        2.000000        0.17925418        0.00557137        0.04382389        0.00497456
      46         -0.353184        2.000000        0.18097586        0.00477125        0.03897894        0.00751600
      47         -0.352834        2.000000        0.17374837        0.00648712        0.03900335        0.00531183
      48         -0.350966        2.000000        0.17652980        0.00606664        0.03935781        0.00567807
      49         -0.350295        2.000000        0.17452309        0.00500956        0.03981030        0.00542116
      50         -0.348903        2.000000        0.18008270        0.00523470        0.03740236        0.00483588
      51         -0.341891        2.000000        0.29010255        0.00416561        0.02678210        0.00377416
      52         -0.335762        2.000000        0.30630656        0.00479209        0.02219760        0.00253003
      53         -0.335350        2.000000        0.31359752        0.00357024        0.01911491        0.00193323
      54         -0.331922        2.000000        0.29567358        0.00273732        0.02300282        0.00508145
      55         -0.330685        2.000000        0.29622355        0.00190554        0.02398885        0.00420158
      56         -0.328267        2.000000        0.30100114        0.00472472        0.02401780        0.00318347
      57         -0.327247        2.000000        0.30105666        0.00192166        0.02012459        0.00404797
      58         -0.322066        2.000000        0.28594765        0.00253605        0.04386731        0.00275188
      59         -0.320178        2.000000        0.28180409        0.00179500        0.04793242        0.00323312
      60         -0.318672        2.000000        0.28274539        0.00301495        0.04987380        0.00228669
      61         -0.317505        2.000000        0.28357417        0.00171369        0.04249471        0.00268516
      62         -0.316545        2.000000        0.28129000        0.00155528        0.04855247        0.00233685
      63         -0.314337        2.000000        0.27898930        0.00323522        0.04456347        0.00139045
      64         -0.311352        2.000000        0.30349767        0.00111334        0.05146330        0.00090214
      65         -0.244987        2.000000        0.23500909        0.00760752        0.00139510        0.02358149
      66         -0.242514        2.000000        0.22943111        0.01135884        0.00205589        0.02921898
      67         -0.239071        2.000000        0.21937880        0.02469281        0.00252066        0.01249192
      68         -0.237314        2.000000        0.20746347        0.01534500        0.00451904        0.02821431
      69         -0.235123        2.000000        0.20901661        0.02892198        0.00381964        0.02139994
      70         -0.234267        2.000000        0.20149990        0.01826041        0.00388692        0.02245015
      71         -0.232707        2.000000        0.20837077        0.01592173        0.00324653        0.02452264
      72         -0.230836        2.000000        0.21139154        0.01580220        0.00345939        0.02432327
      73         -0.229323        2.000000        0.20301677        0.01365163        0.00389235        0.02468084
      74         -0.228885        2.000000        0.21821852        0.01926422        0.00378932        0.01252528
      75         -0.227872        2.000000        0.19448660        0.01306828        0.00249318        0.02312310
      76         -0.226922        2.000000        0.18411008        0.01887391        0.00372502        0.02129686
      77         -0.224937        2.000000        0.20065561        0.01701212        0.00406707        0.01468495
      78         -0.222229        2.000000        0.18636993        0.01430544        0.00576964        0.01732462
      79         -0.222130        2.000000        0.21057491        0.01555628        0.00480708        0.01273216
      80         -0.221523        2.000000        0.15637298        0.02445097        0.00538769        0.01432711
      81         -0.220850        2.000000        0.22021764        0.01186719        0.00557829        0.01853548
      82         -0.219565        2.000000        0.16406412        0.02271866        0.00348348        0.01520174
      83         -0.219065        2.000000        0.18013992        0.02246754        0.00457081        0.01237221
      84         -0.218358        2.000000        0.19741185        0.01822187        0.00510642        0.01910579
      85         -0.217963        2.000000        0.16399487        0.01423547        0.00753999        0.02501850
      86         -0.216723        2.000000        0.18806083        0.01490292        0.00555590        0.01927432
      87         -0.215985        2.000000        0.17427959        0.02143493        0.00436790        0.01317071
      88         -0.215704        2.000000        0.20394657        0.02498532        0.00495560        0.00970621
      89         -0.215416        2.000000        0.15748072        0.02250521        0.00417305        0.01800949
      90         -0.214084        2.000000        0.19590437        0.01788898        0.01067427        0.01542284
      91         -0.213191        2.000000        0.22690041        0.01215020        0.00831176        0.01748638
      92         -0.212940        2.000000        0.19316427        0.01437271        0.00691586        0.01904583
      93         -0.212268        2.000000        0.23804371        0.01627806        0.00750913        0.01727918
      94         -0.211154        2.000000        0.15689543        0.02777638        0.00733025        0.01055487
      95         -0.210595        2.000000        0.17922939        0.01511975        0.00568000        0.01617403
      96         -0.210222        2.000000        0.24286727        0.01466197        0.00598692        0.01613738
      97         -0.210060        2.000000        0.22015373        0.01188468        0.00504735        0.01884913
      98         -0.209188        2.000000        0.26332943        0.01382638        0.01131328        0.01124976
      99         -0.207737        2.000000        0.29776155        0.00748796        0.00911446        0.01399355
     100         -0.206875        2.000000        0.20869272        0.01691150        0.00616792        0.01874373
     101         -0.206795        2.000000        0.24161291        0.01087639        0.00605440        0.01665872
     102         -0.205682        2.000000        0.19519732        0.01821765        0.00709693        0.01562382
     103         -0.204717        2.000000        0.26669471        0.00992945        0.00552612        0.01561851
     104         -0.203769        2.000000        0.26100132        0.01153843        0.00833617        0.01415621
     105         -0.203013        2.000000        0.25091572        0.01123964        0.00716100        0.01145720
     106         -0.202455        2.000000        0.21948149        0.01389690        0.00930004        0.01891326
     107         -0.201674        2.000000        0.22956604        0.01374108        0.00555209        0.01331464
     108         -0.200505        2.000000        0.23546420        0.01049602        0.01021577        0.01566310
     109         -0.199291        2.000000        0.23659945        0.01419451        0.00699298        0.01274656
     110         -0.199114        2.000000        0.26510071        0.01467868        0.01015904        0.01155676
     111         -0.198544        2.000000        0.20709200        0.01118499        0.00744206        0.01855483
     112         -0.197813        2.000000        0.23453824        0.01792675        0.00627692        0.01511232
     113         -0.197707        2.000000        0.21712445        0.01791369        0.00609415        0.01427412
     114         -0.196350        2.000000        0.20787337        0.01356958        0.00624003        0.01475678
     115         -0.195518        2.000000        0.20820452        0.01648870        0.00814690        0.01440295
     116         -0.194407        2.000000        0.23221606        0.01313398        0.00637357        0.01360888
     117         -0.194051        2.000000        0.23899008        0.01292772        0.01202611        0.01382973
     118         -0.193002        2.000000        0.22501542        0.01773013        0.00558776        0.01441158
     119         -0.192318        2.000000        0.24348324        0.01524590        0.00840101        0.01193705
     120         -0.191781        2.000000        0.19620617        0.01969163        0.00497333        0.01279844
     121         -0.190833        2.000000        0.23003021        0.01942932        0.00837470        0.01295887
     122         -0.190033        2.000000        0.24059007        0.01546473        0.00554161        0.01356809
     123         -0.188438        2.000000        0.30522606        0.00827413        0.00800108        0.01429609
     124         -0.188038        2.000000        0.24856897        0.01612475        0.00514444        0.01579703
     125         -0.187230        2.000000        0.19790009        0.01328737        0.00616648        0.01838534
     126         -0.184821        2.000000        0.22756549        0.01545244        0.00792255        0.01429499
     127         -0.183544        2.000000        0.25489790        0.01074443        0.00738025        0.01682540
     128         -0.182295        2.000000        0.29831333        0.01183510        0.00761833        0.00927555
     129         -0.180391        2.000000        0.23549975        0.01137696        0.00695749        0.01635217
     130         -0.177837        2.000000        0.30383926        0.01099732        0.00823992        0.01075455
     131         -0.176705        2.000000        0.28826137        0.01657519        0.00943651        0.01073006
     132         -0.176024        2.000000        0.28312359        0.01470399        0.00935838        0.00794926
     133         -0.173403        2.000000        0.20525563        0.01860808        0.01055165        0.01397023
     134         -0.172115        2.000000        0.18731456        0.01496873        0.00914841        0.02119706
     135         -0.171238        2.000000        0.27405292        0.01526764        0.01114564        0.01057757
     136         -0.169236        2.000000        0.32460719        0.00863357        0.01804703        0.00984406
     137         -0.169029        2.000000        0.22380583        0.02062672        0.00951835        0.01382152
     138         -0.167839        2.000000        0.20741312        0.01734995        0.01048743        0.01400167
     139         -0.166991        2.000000        0.06003148        0.02821842        0.00312920        0.01136330
     140         -0.165832        2.000000        0.06815586        0.00296334        0.00295103        0.03554159
     141         -0.162977        2.000000        0.02039149        0.03253910        0.00148198        0.01002460
     142         -0.153491        2.000000        0.00779883        0.00393441        0.00122329        0.03653211
     143         -0.148465        2.000000        0.00407951        0.02762795        0.00098929        0.01440107
     144         -0.146484        2.000000        0.00876803        0.03018271        0.00207026        0.01197367
     145         -0.145301        2.000000        0.00737946        0.02688941        0.00172342        0.01367608
     146         -0.144967        2.000000        0.00934935        0.03114808        0.00125272        0.00953163
     147         -0.140893        2.000000        0.00812277        0.00577100        0.00184363        0.04561169
     148         -0.140164        2.000000        0.00556316        0.00831005        0.00153130        0.03383575
     149         -0.137288        2.000000        0.01011256        0.03896918        0.00307808        0.01264655
     150         -0.134474        2.000000        0.01538576        0.03925862        0.00431776        0.01215255
     151         -0.122154        2.000000        0.00362536        0.00786085        0.00167532        0.04210075
     152         -0.119216        2.000000        0.00201420        0.00056347        0.00077062        0.03588851
     153         -0.117654        2.000000        0.00505429        0.03221858        0.00244501        0.01716675
     154         -0.116436        2.000000        0.00323391        0.02207086        0.00134113        0.02681770
     155         -0.116347        2.000000        0.00305078        0.03459651        0.00095858        0.00719336
     156         -0.114143        2.000000        0.00545947        0.03756321        0.00198404        0.01219521
     157         -0.110658        2.000000        0.00335750        0.02284764        0.00221913        0.02783502
     158         -0.108763        2.000000        0.00451025        0.03716675        0.00193599        0.01491403
     159         -0.082971        2.000000        0.00354917        0.00133667        0.00094016        0.04611554
     160         -0.077977        2.000000        0.00369109        0.04706626        0.00083042        0.00173953
     161         -0.045185        0.000000        0.02909798        0.00223906        0.01378957        0.00191819
     162         -0.041932        0.000000        0.00648974        0.00706315        0.01471114        0.00663064
     163         -0.039880        0.000000        0.00537935        0.00907222        0.01313727        0.01035152
     164         -0.037567        0.000000        0.00519998        0.00807505        0.01349747        0.01166997
     165         -0.035726        0.000000        0.01216034        0.00338098        0.01372537        0.00301485
     166         -0.029340        0.000000        0.01200961        0.01995230        0.01421383        0.01098334
     167         -0.027959        0.000000        0.01468988        0.01398319        0.01171639        0.01680953
     168         -0.024123        0.000000        0.01538973        0.00864100        0.01500507        0.02613918
     169         -0.022988        0.000000        0.01423962        0.01477782        0.01423687        0.01930302
     170         -0.021858        0.000000        0.01436222        0.01609923        0.01822730        0.01992475
     171         -0.020953        0.000000        0.01526786        0.01000388        0.01695750        0.02067741
     172         -0.018638        0.000000        0.01513157        0.01986357        0.01526866        0.02322859
     173         -0.016849        0.000000        0.01309337        0.02264501        0.01593986        0.01111531
     174         -0.015087        0.000000        0.02021295        0.02525828        0.02015053        0.01316551
     175         -0.004216        0.000000        0.01009466        0.01852987        0.02269581        0.02954951
     176          0.000349        0.000000        0.01360530        0.03544567        0.02432072        0.01818790
     177          0.000839        0.000000        0.01037900        0.03051003        0.02174258        0.02502342
     178          0.004630        0.000000        0.01232298        0.02037436        0.02493628        0.03122178
     179          0.005764        0.000000        0.01127227        0.02344028        0.02438216        0.02961583
     180          0.008691        0.000000        0.01984986        0.02296322        0.03413202        0.02335880
     181          0.020146        0.000000        0.06949508        0.05203188        0.05982193        0.13748096
     182          0.020849        0.000000        0.04092340        0.05970853        0.03689841        0.06398732
     183          0.024718        0.000000        0.04588838        0.05474638        0.04087791        0.06962412
     184          0.025421        0.000000        0.01072491        0.02181742        0.00763420        0.04114938
     185          0.029039        0.000000        0.07361744        0.13870637        0.05919679        0.05590743
     186          0.032117        0.000000        0.08126775        0.08193140        0.05400828        0.08265117
     187          0.038086        0.000000        0.07273869        0.04954152        0.05440240        0.10598155
     188          0.041187        0.000000        0.07189052        0.06348746        0.05752042        0.08228178
     189          0.042043        0.000000        0.07175824        0.05322704        0.05534486        0.10257426
     190          0.043823        0.000000        0.07970802        0.09055208        0.04912820        0.07426430
     191          0.045807        0.000000        0.07127025        0.08285088        0.04917075        0.08012884
     192          0.046682        0.000000        0.06662484        0.06969453        0.04912900        0.09128683
     193          0.051451        0.000000        0.05870662        0.12184913        0.05612060        0.03741846
     194          0.052688        0.000000        0.06541821        0.06943703        0.06918998        0.11343194
     195          0.053982        0.000000        0.07454552        0.08218940        0.05946403        0.08114123
     196          0.055040        0.000000        0.05905617        0.11908992        0.07332177        0.03761724
     197          0.055918        0.000000        0.07164471        0.09826935        0.05694636        0.05711013
     198          0.058286        0.000000        0.05945223        0.10537829        0.06676353        0.06103919
     199          0.060048        0.000000        0.08238490        0.07334994        0.05228137        0.04447816
     200          0.060895        0.000000        0.06034700        0.04806222        0.03683410        0.07382382
     201          0.064048        0.000000        0.10612669        0.04684685        0.05472718        0.05723324
     202          0.065082        0.000000        0.06180554        0.07240082        0.04767848        0.06440744
     203          0.066855        0.000000        0.07508179        0.04509804        0.05966260        0.06102884
     204          0.067934        0.000000        0.09435047        0.03736330        0.04512819        0.06077076
     205          0.068534        0.000000        0.07570002        0.04472575        0.04574804        0.05263091
     206          0.069469        0.000000        0.08426245        0.04722142        0.04398084        0.05245474
     207          0.070793        0.000000        0.10368096        0.05064375        0.04747467        0.05544004
     208          0.071257        0.000000        0.10559593        0.04706109        0.05367019        0.07529828
     209          0.071886        0.000000        0.10395320        0.04077142        0.04524677        0.04692945
     210          0.072974        0.000000        0.09269838        0.03931545        0.03811328        0.04846078
