# Projected DOS for atomic kind Ge at iteration step i = 0, E(Fermi) =    -0.079919 a.u.
#     MO Eigenvalue [a.u.]      Occupation                 s                py                pz                px               d-2               d-1                d0               d+1               d+2
       1         -0.501386        2.000000        0.75275759        0.00665520        0.02071295        0.00624684        0.00083982        0.00052732        0.00758617        0.00072363        0.00108056
       2         -0.483422        2.000000        0.10286799        0.00682972        0.00420817        0.01102144        0.00107673        0.00036323        0.00061426        0.00068893        0.00074383
       3         -0.482738        2.000000        0.57377750        0.03158230        0.01268214        0.06404894        0.00590986        0.00177329        0.00343434        0.00343929        0.00315629
       4         -0.481054        2.000000        0.64628136        0.07182637        0.01401980        0.04299443        0.00425431        0.00347604        0.00243352        0.00253339        0.00692194
       5         -0.476601        2.000000        0.65269414        0.05475034        0.01019106        0.06183623        0.00628066        0.00270709        0.00343604        0.00397242        0.00611760
       6         -0.475294        2.000000        0.64798204        0.06029292        0.00883463        0.05716453        0.00548704        0.00308835        0.00314660        0.00357471        0.00641755
       7         -0.472742        2.000000        0.65368785        0.08650139        0.00977920        0.02902563        0.00366792        0.00486865        0.00367603        0.00154700        0.00852629
       8         -0.468151        2.000000        0.63457502        0.03546169        0.00808063        0.08421060        0.00815651        0.00189420        0.00286904        0.00446464        0.00338781
       9         -0.465376        2.000000        0.01501314        0.00120900        0.00155949        0.00127476        0.00018581        0.00009975        0.00028377        0.00019736        0.00016672
      10         -0.462411        2.000000        0.01195108        0.00103055        0.00154133        0.00089731        0.00014496        0.00012163        0.00027223        0.00009712        0.00018899
      11         -0.460749        2.000000        0.00978164        0.00066312        0.00140391        0.00086252        0.00015502        0.00007633        0.00025321        0.00010130        0.00010339
      12         -0.459339        2.000000        0.00801852        0.00045237        0.00160499        0.00086402        0.00013800        0.00004834        0.00025899        0.00010747        0.00006572
      13         -0.457172        2.000000        0.00599005        0.00035060        0.00151399        0.00053754        0.00008149        0.00006802        0.00020414        0.00005375        0.00007748
      14         -0.454477        2.000000        0.00295467        0.00041113        0.00095729        0.00021807        0.00004159        0.00003508        0.00013813        0.00004354        0.00006213
      15         -0.440717        2.000000        0.54882714        0.13586048        0.00303484        0.08055051        0.01310160        0.00829348        0.00091289        0.00597690        0.01661007
      16         -0.436556        2.000000        0.54255770        0.07735685        0.00206842        0.13858578        0.01599235        0.00602405        0.00073922        0.00937121        0.01382762
      17         -0.435490        2.000000        0.55014804        0.07222710        0.00142405        0.13571363        0.01820774        0.00585169        0.00030279        0.01057794        0.01520397
      18         -0.433009        2.000000        0.54386872        0.10640428        0.00189919        0.11102328        0.01887165        0.00773201        0.00088276        0.00746558        0.01245850
      19         -0.431018        2.000000        0.54376251        0.12438677        0.00154511        0.08842708        0.01360268        0.00713677        0.00043372        0.00595838        0.01817015
      20         -0.429975        2.000000        0.55426145        0.11343298        0.00307665        0.07415285        0.01726490        0.00798829        0.00098837        0.00493509        0.02364715
      21         -0.428853        2.000000        0.54728058        0.09392376        0.00151209        0.11361940        0.01809855        0.00706758        0.00038856        0.00710364        0.01800234
      22         -0.425191        2.000000        0.48312958        0.11518636        0.00131584        0.06957841        0.01267734        0.00658433        0.00043245        0.00455670        0.02069404
      23         -0.423642        2.000000        0.06404637        0.01153272        0.00068762        0.01259713        0.00217596        0.00082794        0.00005380        0.00088855        0.00203717
      24         -0.421261        2.000000        0.45531123        0.05148780        0.00250589        0.10597830        0.02031758        0.00372349        0.00054043        0.00749455        0.01075514
      25         -0.420925        2.000000        0.07930944        0.01329069        0.00060066        0.01499079        0.00298016        0.00104889        0.00014683        0.00095191        0.00244460
      26         -0.419437        2.000000        0.03872716        0.00703365        0.00088616        0.00761933        0.00146435        0.00055179        0.00011257        0.00051409        0.00115460
      27         -0.417413        2.000000        0.00511335        0.00097286        0.00053687        0.00101273        0.00015412        0.00018515        0.00005428        0.00009992        0.00019469
      28         -0.417403        2.000000        0.00197386        0.00049061        0.00030027        0.00042504        0.00005160        0.00005209        0.00003572        0.00003247        0.00008601
      29         -0.415863        2.000000        0.00132934        0.00027686        0.00019643        0.00040036        0.00005624        0.00004772        0.00003353        0.00006008        0.00004087
      30         -0.413805        2.000000        0.00245858        0.00040214        0.00033725        0.00061747        0.00009556        0.00003950        0.00003707        0.00007665        0.00008243
      31         -0.413310        2.000000        0.00250375        0.00065714        0.00047065        0.00057298        0.00009837        0.00004688        0.00004026        0.00007396        0.00006121
      32         -0.410924        2.000000        0.00111015        0.00023672        0.00031349        0.00063707        0.00003288        0.00001554        0.00004344        0.00002924        0.00002132
      33         -0.377516        2.000000        0.37860016        0.08810919        0.03113207        0.21593010        0.00989167        0.00477824        0.00761808        0.01807975        0.00378218
      34         -0.375439        2.000000        0.38493677        0.10432352        0.03531264        0.18179856        0.01012068        0.00694332        0.00977461        0.01528206        0.00600216
      35         -0.373158        2.000000        0.37094192        0.21299516        0.05907688        0.03791989        0.00298461        0.02026448        0.00514856        0.00702341        0.01233902
      36         -0.366366        2.000000        0.40644395        0.10049970        0.05936309        0.10947350        0.01756118        0.01108308        0.00775171        0.01326309        0.01173190
      37         -0.364056        2.000000        0.32033078        0.06660153        0.05601329        0.11481916        0.01498527        0.00858376        0.00604823        0.01152746        0.00647486
      38         -0.363414        2.000000        0.29768791        0.09129925        0.03534026        0.07990103        0.00984364        0.00954006        0.00831338        0.00765780        0.01275729
      39         -0.363277        2.000000        0.14004947        0.03774556        0.01501717        0.04114522        0.00618019        0.00363807        0.00461539        0.00353581        0.00454848
      40         -0.361755        2.000000        0.28450821        0.07673415        0.03749337        0.08714107        0.01155788        0.00749793        0.00784403        0.00914832        0.00970740
      41         -0.361132        2.000000        0.19340710        0.05811597        0.02734289        0.05706051        0.00605520        0.00511579        0.00489076        0.00579677        0.00936252
      42         -0.360635        2.000000        0.15651789        0.04975244        0.02255421        0.03877361        0.00371355        0.00544072        0.00367287        0.00422862        0.00762989
      43         -0.359713        2.000000        0.27837652        0.10757854        0.03584540        0.05902241        0.00626194        0.01036887        0.00743230        0.00644949        0.01316512
      44         -0.358738        2.000000        0.33347069        0.09525872        0.04297476        0.10625421        0.01141681        0.01183856        0.01005242        0.00941117        0.01283645
      45         -0.354643        2.000000        0.02760207        0.00866510        0.00464979        0.00761991        0.00100094        0.00064170        0.00058776        0.00084507        0.00110948
      46         -0.352409        2.000000        0.01924606        0.00704354        0.00253108        0.00566437        0.00059530        0.00061889        0.00039241        0.00048279        0.00086275
      47         -0.351358        2.000000        0.00475211        0.00158666        0.00307703        0.00111232        0.00010984        0.00012249        0.00022933        0.00014687        0.00018024
      48         -0.351172        2.000000        0.01564659        0.00291619        0.00576257        0.00539161        0.00069753        0.00053143        0.00037915        0.00040963        0.00036015
      49         -0.348830        2.000000        0.00418747        0.00134079        0.00212786        0.00123290        0.00013758        0.00013268        0.00019942        0.00015610        0.00013862
      50         -0.347208        2.000000        0.00674725        0.00134324        0.00548640        0.00166621        0.00021079        0.00017687        0.00023312        0.00021839        0.00013531
      51         -0.343829        2.000000        0.20225685        0.01779763        0.23762453        0.02835994        0.00428013        0.00479013        0.00834259        0.00684384        0.00289652
      52         -0.338277        2.000000        0.23288826        0.03161522        0.23263103        0.02386711        0.00492579        0.00825779        0.01083207        0.00628137        0.00583438
      53         -0.335966        2.000000        0.22788789        0.02826014        0.21852580        0.02968601        0.00543201        0.00663087        0.01066062        0.00669359        0.00419648
      54         -0.333403        2.000000        0.23694528        0.02964787        0.19959203        0.03806148        0.00586725        0.00529617        0.01303556        0.00884394        0.00512003
      55         -0.331661        2.000000        0.11393653        0.00845844        0.13785767        0.01789516        0.00327926        0.00172880        0.00812376        0.00429712        0.00149702
      56         -0.330441        2.000000        0.16480112        0.03145661        0.14619102        0.01595433        0.00219359        0.00687520        0.01096837        0.00259291        0.00586459
      57         -0.324889        2.000000        0.15301858        0.01730153        0.16608265        0.02881766        0.00431617        0.00428532        0.00947783        0.00480185        0.00276837
      58         -0.321896        2.000000        0.05428507        0.00893661        0.04063119        0.00896019        0.00137360        0.00157904        0.00278359        0.00123330        0.00138320
      59         -0.319786        2.000000        0.09930669        0.01673652        0.06623890        0.01702752        0.00241821        0.00295831        0.00569611        0.00238213        0.00286391
      60         -0.319403        2.000000        0.04152194        0.00949956        0.02703691        0.00568712        0.00080950        0.00128474        0.00224896        0.00069867        0.00135263
      61         -0.317985        2.000000        0.08746988        0.01218233        0.06291619        0.01481031        0.00241783        0.00211389        0.00489678        0.00302818        0.00198635
      62         -0.316986        2.000000        0.09862340        0.01879315        0.06808607        0.01373113        0.00229549        0.00300319        0.00549397        0.00279203        0.00280872
      63         -0.314684        2.000000        0.09530680        0.01393153        0.07295493        0.01751265        0.00257730        0.00315336        0.00528846        0.00264296        0.00245558
      64         -0.311791        2.000000        0.09395329        0.00506001        0.15631370        0.00608276        0.00114181        0.00069783        0.00553316        0.00131171        0.00058720
      65         -0.242845        2.000000        0.00357656        0.01683373        0.03374376        0.02051209        0.00035031        0.00063721        0.00184290        0.00074090        0.00081573
      66         -0.241208        2.000000        0.00095611        0.00428385        0.01052764        0.00495213        0.00021226        0.00017674        0.00047368        0.00040324        0.00015812
      67         -0.239629        2.000000        0.00212796        0.02572322        0.03789890        0.00872974        0.00056768        0.00071908        0.00151017        0.00026114        0.00045622
      68         -0.236136        2.000000        0.00977178        0.04771589        0.14124879        0.08358059        0.00363677        0.00140462        0.00501017        0.00129308        0.00383710
      69         -0.235790        2.000000        0.00782735        0.12971675        0.17054978        0.05237839        0.00356473        0.00077743        0.00529613        0.00074776        0.00197437
      70         -0.233200        2.000000        0.00809356        0.06926461        0.22514995        0.14187613        0.00138064        0.00095497        0.00744429        0.00133381        0.00253856
      71         -0.232100        2.000000        0.00537045        0.03455771        0.10297988        0.05487369        0.00080344        0.00064388        0.00377249        0.00083627        0.00177993
      72         -0.230553        2.000000        0.00362625        0.07021441        0.10819626        0.02205836        0.00145359        0.00088812        0.00353962        0.00050941        0.00135497
      73         -0.228451        2.000000        0.00539226        0.04934479        0.11846579        0.03099984        0.00215024        0.00083356        0.00515787        0.00075188        0.00161021
      74         -0.228019        2.000000        0.00567182        0.04862966        0.15215937        0.06117868        0.00165915        0.00084079        0.00666002        0.00081532        0.00232523
      75         -0.226178        2.000000        0.00474226        0.06178071        0.17418518        0.07730561        0.00139096        0.00064525        0.00574480        0.00144908        0.00253736
      76         -0.225839        2.000000        0.00476351        0.02127407        0.08736524        0.04848997        0.00133302        0.00101522        0.00275059        0.00093991        0.00140394
      77         -0.223946        2.000000        0.00393543        0.02024947        0.05634141        0.02128784        0.00136528        0.00036266        0.00419125        0.00037396        0.00064297
      78         -0.222418        2.000000        0.00816612        0.07986784        0.14824931        0.02870795        0.00334540        0.00071991        0.00410007        0.00079962        0.00538794
      79         -0.221550        2.000000        0.00259411        0.02442273        0.05907187        0.01601619        0.00102428        0.00052579        0.00273819        0.00050669        0.00133100
      80         -0.220368        2.000000        0.00949487        0.11063492        0.24331310        0.08401298        0.00519997        0.00224227        0.01182661        0.00315062        0.00540751
      81         -0.219781        2.000000        0.00634081        0.09154076        0.19735405        0.02943194        0.00289892        0.00136646        0.02137014        0.00166006        0.00312812
      82         -0.219082        2.000000        0.00907556        0.05318564        0.13964611        0.03439852        0.00349423        0.00118280        0.01008143        0.00113033        0.00261362
      83         -0.218259        2.000000        0.01176393        0.07082044        0.10932421        0.04062490        0.00466708        0.00107229        0.01318636        0.00203143        0.00302829
      84         -0.217825        2.000000        0.00643680        0.06092386        0.10992306        0.02659284        0.00273384        0.00065816        0.00581178        0.00112942        0.00324409
      85         -0.217607        2.000000        0.01250027        0.08786276        0.18775595        0.13676288        0.00615736        0.00241194        0.00916071        0.00252008        0.00576674
      86         -0.217020        2.000000        0.00453711        0.03699084        0.08247342        0.01937620        0.00218557        0.00060529        0.00621098        0.00095267        0.00161847
      87         -0.215893        2.000000        0.00761589        0.06638597        0.16425726        0.03250539        0.00458212        0.00106705        0.00912050        0.00161753        0.00288498
      88         -0.215337        2.000000        0.00662057        0.05066453        0.09818702        0.03545429        0.00199346        0.00104814        0.01157454        0.00195323        0.00231486
      89         -0.214422        2.000000        0.00722017        0.03555421        0.08284417        0.03505727        0.00263324        0.00113872        0.00547095        0.00053739        0.00305713
      90         -0.213801        2.000000        0.01048470        0.05480353        0.15960688        0.04033290        0.00439533        0.00081462        0.01026531        0.00086362        0.00340918
      91         -0.213497        2.000000        0.00781236        0.03687894        0.10215138        0.04578124        0.00255039        0.00159638        0.00834329        0.00091819        0.00294332
      92         -0.212446        2.000000        0.00972061        0.03985895        0.13012296        0.05899554        0.00474582        0.00136830        0.00985394        0.00240076        0.00201766
      93         -0.211629        2.000000        0.00734931        0.03627628        0.15583540        0.05387294        0.00266114        0.00235942        0.02429353        0.00212650        0.00223671
      94         -0.211497        2.000000        0.01017899        0.06847094        0.16349476        0.05708433        0.00336152        0.00222835        0.01299386        0.00276288        0.00332071
      95         -0.210619        2.000000        0.01049726        0.09445324        0.15338783        0.06437762        0.00408571        0.00205392        0.00906450        0.00274088        0.00550779
      96         -0.209846        2.000000        0.00539539        0.03318629        0.14002906        0.05148770        0.00304205        0.00333760        0.01729877        0.00188235        0.00173113
      97         -0.209122        2.000000        0.01375157        0.07442400        0.17503355        0.06854079        0.00493294        0.00114032        0.00932038        0.00222050        0.00529738
      98         -0.208490        2.000000        0.00818947        0.03908946        0.14066255        0.04773409        0.00198414        0.00165193        0.01386774        0.00212119        0.00419153
      99         -0.207761        2.000000        0.00846053        0.05813614        0.15399280        0.07429459        0.00277891        0.00297783        0.01896379        0.00153658        0.00344554
     100         -0.207002        2.000000        0.01032704        0.06731490        0.12677127        0.10799650        0.00448137        0.00208391        0.01344368        0.00231498        0.00587243
     101         -0.206786        2.000000        0.00800050        0.05155878        0.15925268        0.07157463        0.00353115        0.00294576        0.01186907        0.00251654        0.00425354
     102         -0.205120        2.000000        0.00996651        0.05232009        0.14426446        0.10725731        0.00473121        0.00355868        0.01405439        0.00277989        0.00454599
     103         -0.204662        2.000000        0.01094840        0.08505848        0.08123952        0.07961014        0.00403435        0.00135876        0.01127034        0.00335869        0.00458279
     104         -0.203759        2.000000        0.02075097        0.08876813        0.17664850        0.15462640        0.00735089        0.00357877        0.01452734        0.00276609        0.00677479
     105         -0.203444        2.000000        0.01170552        0.06339355        0.13725335        0.08845585        0.00485117        0.00227075        0.01736201        0.00202827        0.00263600
     106         -0.202401        2.000000        0.00781810        0.05545474        0.14670002        0.10427001        0.00241439        0.00332006        0.02363755        0.00444037        0.00291327
     107         -0.201202        2.000000        0.01145069        0.07031447        0.16292791        0.10185156        0.00352290        0.00341373        0.02782411        0.00258652        0.00446134
     108         -0.200793        2.000000        0.01165507        0.07605845        0.14285353        0.08023030        0.00443062        0.00241278        0.01667887        0.00242650        0.00530372
     109         -0.200380        2.000000        0.02313291        0.09508172        0.14966393        0.12320112        0.01084796        0.00162920        0.00998365        0.00191577        0.00621303
     110         -0.199271        2.000000        0.00829935        0.05769620        0.18253526        0.04157188        0.00352862        0.00268929        0.02211818        0.00259625        0.00414529
     111         -0.198853        2.000000        0.01392759        0.07974446        0.14502868        0.10665999        0.00650488        0.00377428        0.01458247        0.00311330        0.00358174
     112         -0.198353        2.000000        0.01491774        0.04615365        0.17705468        0.09357703        0.00928015        0.00380310        0.01606880        0.00281858        0.00299980
     113         -0.197478        2.000000        0.01410847        0.09005179        0.12658443        0.04547433        0.00369356        0.00138288        0.01006918        0.00228066        0.00849077
     114         -0.196620        2.000000        0.03331355        0.22282794        0.18153412        0.10278769        0.00901007        0.00544963        0.01604202        0.00248251        0.01465403
     115         -0.196267        2.000000        0.01011425        0.07826335        0.15923369        0.07493304        0.00665141        0.00327121        0.01551581        0.00255779        0.00446930
     116         -0.195423        2.000000        0.03090258        0.16189958        0.16088665        0.11452075        0.01081634        0.00381279        0.00969678        0.00291653        0.01016654
     117         -0.194969        2.000000        0.01435427        0.09326918        0.23539339        0.08001287        0.00815389        0.00303117        0.02453856        0.00618111        0.00465567
     118         -0.194158        2.000000        0.00716213        0.06037177        0.13112632        0.05462906        0.00375580        0.00164754        0.01952784        0.00374967        0.00343682
     119         -0.192942        2.000000        0.02274546        0.12641133        0.13348132        0.07748369        0.00485059        0.00273147        0.01117232        0.00249919        0.01233988
     120         -0.192382        2.000000        0.01479912        0.08347512        0.11672012        0.10178909        0.00877321        0.00236153        0.01384413        0.00268966        0.00352190
     121         -0.191361        2.000000        0.00772816        0.06862619        0.07764905        0.06381092        0.00391627        0.00225401        0.00741256        0.00207228        0.00468920
     122         -0.190404        2.000000        0.01196984        0.08866966        0.11868384        0.12117709        0.00568486        0.00413450        0.01178749        0.00350652        0.00663048
     123         -0.190055        2.000000        0.03029115        0.12188763        0.23869578        0.16541365        0.01646826        0.00302500        0.02303082        0.00503258        0.00742683
     124         -0.189214        2.000000        0.02104386        0.12814188        0.20318845        0.12725015        0.00685003        0.00423328        0.01480489        0.00375796        0.01398994
     125         -0.187463        2.000000        0.00895894        0.09577366        0.25464424        0.11650053        0.00397704        0.00417183        0.03129169        0.00780662        0.00837587
     126         -0.186020        2.000000        0.01090298        0.06885334        0.18299468        0.09049836        0.00603455        0.00438938        0.02689315        0.00281077        0.00722290
     127         -0.183922        2.000000        0.02762350        0.08504252        0.23240600        0.16740241        0.01378044        0.00520672        0.02317597        0.00484326        0.01091332
     128         -0.182621        2.000000        0.01795699        0.18396259        0.20233572        0.12411401        0.01487691        0.00584353        0.02849130        0.00714753        0.00756995
     129         -0.181262        2.000000        0.01314931        0.10634715        0.19924369        0.18955728        0.00823254        0.00623781        0.02726477        0.00677381        0.01195018
     130         -0.178533        2.000000        0.01150257        0.08293828        0.26165047        0.07393894        0.00829359        0.00515437        0.03927648        0.00451697        0.00607908
     131         -0.177432        2.000000        0.01545490        0.14339040        0.23823088        0.10814964        0.00570916        0.00591967        0.03552509        0.00654437        0.01530108
     132         -0.176034        2.000000        0.01251474        0.12330706        0.22312755        0.11622798        0.00822326        0.00575576        0.03664196        0.00811691        0.00985303
     133         -0.174805        2.000000        0.01820706        0.21448606        0.24030447        0.09309604        0.01764138        0.00481772        0.03171123        0.01086443        0.00754543
     134         -0.172794        2.000000        0.01916958        0.15697367        0.23402522        0.15990162        0.01164861        0.00838794        0.02819957        0.00962387        0.01465962
     135         -0.172281        2.000000        0.01821427        0.18563098        0.21932126        0.24024131        0.01573122        0.01114465        0.01873423        0.01064527        0.01499561
     136         -0.169558        2.000000        0.02141282        0.19775545        0.23764305        0.10453416        0.01164752        0.01648249        0.03146559        0.00715391        0.01255754
     137         -0.167880        2.000000        0.01597740        0.06496249        0.25983539        0.09315652        0.00803705        0.00557780        0.04933481        0.00432222        0.00895333
     138         -0.167527        2.000000        0.01673231        0.08267581        0.31529318        0.06950997        0.00560131        0.00447579        0.05941082        0.00703014        0.01044136
     139         -0.164559        2.000000        0.00066912        0.00573666        0.01114890        0.00325225        0.00035763        0.00033864        0.00235943        0.00021954        0.00037014
     140         -0.162827        2.000000        0.00159673        0.00663639        0.02806552        0.00815841        0.00070799        0.00055957        0.00557707        0.00036982        0.00097756
     141         -0.160795        2.000000        0.00057658        0.00320269        0.00916235        0.00417509        0.00033776        0.00023494        0.00181122        0.00017108        0.00030062
     142         -0.149730        2.000000        0.00004776        0.00041010        0.00111374        0.00042590        0.00002514        0.00002386        0.00015255        0.00002908        0.00003613
     143         -0.146123        2.000000        0.00004038        0.00057229        0.00056927        0.00091045        0.00003555        0.00003012        0.00004382        0.00004954        0.00003270
     144         -0.143750        2.000000        0.00011102        0.00101696        0.00126562        0.01255858        0.00016393        0.00006022        0.00012942        0.00034812        0.00007334