# Projected DOS for atomic kind Ge at iteration step i = 0, E(Fermi) =    -0.077737 a.u.
#     MO Eigenvalue [a.u.]      Occupation                 s                py                pz                px               d-2               d-1                d0               d+1               d+2
       1         -0.499961        2.000000        0.75434690        0.00515963        0.02058681        0.00457858        0.00064572        0.00049191        0.00797612        0.00061551        0.00086859
       2         -0.486793        2.000000        0.01010454        0.00013542        0.00297872        0.00025533        0.00003246        0.00001338        0.00060423        0.00004367        0.00002735
       3         -0.481623        2.000000        0.65259953        0.04585759        0.01267330        0.06916007        0.00640363        0.00248080        0.00314949        0.00405668        0.00462602
       4         -0.480049        2.000000        0.65592007        0.07213070        0.01434272        0.04320319        0.00409205        0.00370763        0.00276417        0.00232479        0.00722471
       5         -0.475850        2.000000        0.65165933        0.03614286        0.00941584        0.08094954        0.00801401        0.00200273        0.00342664        0.00462587        0.00386300
       6         -0.474148        2.000000        0.61325931        0.04404033        0.00885749        0.06510312        0.00630115        0.00228226        0.00289451        0.00363874        0.00430727
       7         -0.472409        2.000000        0.61905080        0.10048735        0.00847922        0.01021721        0.00181684        0.00513833        0.00335481        0.00089086        0.01027217
       8         -0.470696        2.000000        0.07339345        0.01003046        0.00246810        0.00254266        0.00028464        0.00063616        0.00058180        0.00022105        0.00126078
       9         -0.467595        2.000000        0.57160883        0.03414414        0.00700934        0.07456437        0.00699616        0.00181167        0.00275920        0.00420615        0.00338502
      10         -0.465592        2.000000        0.05891660        0.00337961        0.00244210        0.00784658        0.00083077        0.00021317        0.00057129        0.00039802        0.00030978
      11         -0.464491        2.000000        0.02430117        0.00138279        0.00177328        0.00260113        0.00035148        0.00011942        0.00032909        0.00026320        0.00021734
      12         -0.463182        2.000000        0.03182603        0.00230084        0.00198940        0.00318166        0.00037354        0.00017733        0.00043604        0.00025818        0.00032102
      13         -0.459463        2.000000        0.00741245        0.00042386        0.00137656        0.00063626        0.00009099        0.00008939        0.00020847        0.00005655        0.00010114
      14         -0.457275        2.000000        0.00367245        0.00056275        0.00081807        0.00016056        0.00002876        0.00005148        0.00013859        0.00002834        0.00009043
      15         -0.439417        2.000000        0.54670850        0.13730421        0.00248906        0.07921221        0.01277077        0.00886527        0.00078569        0.00598494        0.01649116
      16         -0.436775        2.000000        0.54366419        0.06174652        0.00233499        0.15438913        0.01948089        0.00560401        0.00071136        0.00910480        0.01288869
      17         -0.432843        2.000000        0.54833685        0.06130494        0.00168710        0.14225891        0.02229056        0.00428448        0.00044698        0.01136816        0.01327698
      18         -0.432184        2.000000        0.53602966        0.10638192        0.00287380        0.10808269        0.01538748        0.00770547        0.00054448        0.00802441        0.01299426
      19         -0.430426        2.000000        0.48852833        0.11987723        0.00096097        0.07744177        0.01266734        0.00684980        0.00043930        0.00509002        0.01446743
      20         -0.429387        2.000000        0.54620447        0.11474290        0.00118790        0.07502243        0.01277801        0.00955505        0.00053334        0.00469128        0.02675085
      21         -0.427794        2.000000        0.13029932        0.02972985        0.00107160        0.02130551        0.00338100        0.00151807        0.00015882        0.00205813        0.00459562
      22         -0.427271        2.000000        0.54958890        0.11307296        0.00246457        0.07787239        0.01602081        0.00793075        0.00058182        0.00532710        0.02427765
      23         -0.426144        2.000000        0.44180303        0.09619219        0.00158157        0.08163121        0.01203519        0.00542868        0.00034300        0.00479560        0.01557394
      24         -0.424394        2.000000        0.05745968        0.01000146        0.00034277        0.01283525        0.00175310        0.00063558        0.00007346        0.00092787        0.00164427
      25         -0.421778        2.000000        0.01305979        0.00198323        0.00033306        0.00237681        0.00053180        0.00017344        0.00004489        0.00021548        0.00043898
      26         -0.421302        2.000000        0.00741936        0.00166226        0.00031367        0.00129779        0.00020877        0.00013449        0.00003747        0.00008752        0.00028248
      27         -0.419581        2.000000        0.00531031        0.00116189        0.00039115        0.00117830        0.00014482        0.00009903        0.00003921        0.00006261        0.00020943
      28         -0.418228        2.000000        0.10258826        0.01080663        0.00078661        0.02651656        0.00490213        0.00068539        0.00011786        0.00165099        0.00215049
      29         -0.418119        2.000000        0.34106653        0.03895242        0.00203556        0.08056902        0.01636030        0.00253469        0.00039012        0.00588166        0.00752686
      30         -0.417190        2.000000        0.11344579        0.01208735        0.00079784        0.02726290        0.00505867        0.00094333        0.00012837        0.00206747        0.00257130
      31         -0.416538        2.000000        0.00481827        0.00109824        0.00042017        0.00105040        0.00018154        0.00011627        0.00004656        0.00007318        0.00017607
      32         -0.412499        2.000000        0.00162301        0.00047360        0.00047102        0.00058879        0.00005637        0.00004094        0.00004472        0.00004485        0.00004336
      33         -0.376480        2.000000        0.38043478        0.08830886        0.04123107        0.19617616        0.00967196        0.00675362        0.00677653        0.01768678        0.00538482
      34         -0.374056        2.000000        0.37460611        0.08374041        0.03806165        0.20387287        0.00938789        0.00689946        0.00770129        0.01701102        0.00447674
      35         -0.371723        2.000000        0.35414493        0.21871837        0.04159755        0.05025248        0.00375466        0.01761782        0.00653524        0.00400926        0.01131356
      36         -0.367566        2.000000        0.34392925        0.07844307        0.06188314        0.09664031        0.01474836        0.01069232        0.00647125        0.01095428        0.00868986
      37         -0.364541        2.000000        0.34871282        0.09935285        0.04408990        0.10431263        0.01451084        0.00940422        0.00763221        0.01073180        0.01254038
      38         -0.364002        2.000000        0.09661201        0.02573378        0.01601403        0.02772299        0.00356339        0.00288655        0.00219718        0.00332910        0.00341856
      39         -0.363860        2.000000        0.09813397        0.02569061        0.01457370        0.03516943        0.00309018        0.00310744        0.00187331        0.00343012        0.00325769
      40         -0.362921        2.000000        0.05166969        0.01310999        0.00864630        0.01659960        0.00168051        0.00189386        0.00086695        0.00172208        0.00141282
      41         -0.361208        2.000000        0.28400406        0.10240065        0.04374148        0.06094257        0.00751328        0.01127022        0.00654098        0.00879043        0.01078849
      42         -0.360453        2.000000        0.37951118        0.12882807        0.04440616        0.10397372        0.01172669        0.01167757        0.01132415        0.00943747        0.01936770
      43         -0.357432        2.000000        0.19932428        0.05359734        0.02395120        0.06308529        0.00907943        0.00459966        0.00590426        0.00604581        0.00585970
      44         -0.356891        2.000000        0.29594386        0.08279448        0.02810452        0.09474757        0.01320431        0.00652973        0.00911208        0.00848350        0.00980984
      45         -0.355754        2.000000        0.32874472        0.09106629        0.04335934        0.09674615        0.01141204        0.00917130        0.00908379        0.00962245        0.01478062
      46         -0.354455        2.000000        0.02227558        0.00571284        0.00274203        0.00792795        0.00087056        0.00070194        0.00055399        0.00066359        0.00087210
      47         -0.353201        2.000000        0.00794177        0.00249517        0.00152367        0.00252703        0.00032260        0.00032135        0.00015835        0.00014643        0.00027207
      48         -0.352691        2.000000        0.00924118        0.00351399        0.00184813        0.00254661        0.00026174        0.00027304        0.00020894        0.00028316        0.00040772
      49         -0.351282        2.000000        0.03776696        0.01218484        0.00625865        0.01077597        0.00126778        0.00094567        0.00095220        0.00099891        0.00164080
      50         -0.350402        2.000000        0.00444557        0.00098361        0.00171022        0.00187170        0.00018598        0.00013166        0.00020020        0.00013359        0.00011717
      51         -0.341018        2.000000        0.21581764        0.02182442        0.22359503        0.03294625        0.00550191        0.00572409        0.00866454        0.00807629        0.00339034
      52         -0.335672        2.000000        0.17443349        0.03503211        0.18927781        0.01082593        0.00104175        0.00854538        0.00946593        0.00139746        0.00654964
      53         -0.333698        2.000000        0.16610523        0.02559783        0.22126140        0.01325003        0.00280915        0.00470039        0.00877702        0.00341099        0.00332951
      54         -0.332723        2.000000        0.20033608        0.01745591        0.18038218        0.03830377        0.00702946        0.00332060        0.01144537        0.00912313        0.00295787
      55         -0.330652        2.000000        0.19302449        0.01698255        0.17684017        0.03799443        0.00596127        0.00434593        0.01205595        0.00754138        0.00289011
      56         -0.328363        2.000000        0.12341156        0.01285566        0.10648057        0.02439227        0.00454745        0.00207070        0.00812406        0.00460635        0.00205692
      57         -0.327808        2.000000        0.18855122        0.03617667        0.16810684        0.01622345        0.00162432        0.00723189        0.01115370        0.00287484        0.00614470
      58         -0.321895        2.000000        0.07425338        0.01536698        0.05690146        0.00916518        0.00121888        0.00275921        0.00400733        0.00107643        0.00251108
      59         -0.321451        2.000000        0.12092558        0.01679108        0.09861498        0.02069339        0.00336880        0.00300255        0.00731525        0.00389290        0.00237949
      60         -0.319908        2.000000        0.07857636        0.00897092        0.06471331        0.01621782        0.00254474        0.00137455        0.00391981        0.00231307        0.00136385
      61         -0.318302        2.000000        0.11059042        0.01681751        0.09197177        0.01555239        0.00253649        0.00315003        0.00605954        0.00257607        0.00274546
      62         -0.317735        2.000000        0.10048196        0.00925486        0.08704388        0.02013645        0.00328347        0.00159885        0.00546549        0.00328777        0.00154912
      63         -0.315473        2.000000        0.08933301        0.02015679        0.06496094        0.00658004        0.00099109        0.00297235        0.00504706        0.00172313        0.00322255
      64         -0.310959        2.000000        0.07670778        0.00452892        0.11226692        0.00682808        0.00107900        0.00088937        0.00406279        0.00135313        0.00057669
      65         -0.244626        2.000000        0.00114502        0.00189430        0.00447057        0.00231431        0.00014388        0.00015552        0.00048485        0.00031329        0.00015288
      66         -0.243518        2.000000        0.00234178        0.00820117        0.01943821        0.01120174        0.00024707        0.00041203        0.00107206        0.00033604        0.00053479
      67         -0.239930        2.000000        0.00248129        0.00585005        0.01882840        0.00699010        0.00038204        0.00064683        0.00181128        0.00027517        0.00050991
      68         -0.238134        2.000000        0.00709755        0.02366049        0.08378602        0.04674160        0.00177993        0.00089066        0.00432588        0.00082383        0.00263072
      69         -0.235767        2.000000        0.00738736        0.05975818        0.13690550        0.06504160        0.00282710        0.00095011        0.00509464        0.00062488        0.00155422
      70         -0.234460        2.000000        0.00629684        0.06157720        0.09323361        0.04242614        0.00193517        0.00087279        0.00289315        0.00050416        0.00211953
      71         -0.233061        2.000000        0.00483266        0.02417563        0.09150957        0.04860061        0.00089159        0.00052270        0.00317081        0.00056436        0.00162043
      72         -0.231198        2.000000        0.00730594        0.06989654        0.22425408        0.12513799        0.00124317        0.00101479        0.00714300        0.00135016        0.00276836
      73         -0.230192        2.000000        0.00425662        0.04952855        0.17085659        0.07209383        0.00174302        0.00085260        0.00667876        0.00116149        0.00055668
      74         -0.228748        2.000000        0.00382204        0.04214433        0.08229533        0.02284781        0.00152909        0.00057801        0.00297607        0.00056663        0.00088388
      75         -0.228478        2.000000        0.00345850        0.07859318        0.17077642        0.06422192        0.00232112        0.00115488        0.00605918        0.00117618        0.00085943
      76         -0.227503        2.000000        0.00429455        0.03703921        0.07975397        0.02755631        0.00089819        0.00078918        0.00254318        0.00027882        0.00182229
      77         -0.225452        2.000000        0.00402381        0.02209509        0.06626654        0.02015349        0.00116312        0.00034912        0.00411016        0.00045391        0.00128709
      78         -0.223374        2.000000        0.00347167        0.01336454        0.03181336        0.01336080        0.00080574        0.00039332        0.00185176        0.00018846        0.00078881
      79         -0.222887        2.000000        0.00481458        0.03704055        0.10342246        0.03522053        0.00123366        0.00057791        0.00555623        0.00067656        0.00172876
      80         -0.222050        2.000000        0.00686319        0.05010110        0.17424303        0.05808761        0.00353978        0.00132252        0.01086619        0.00136472        0.00377370
      81         -0.221570        2.000000        0.00750310        0.04000407        0.12321800        0.04705037        0.00228778        0.00121860        0.00863322        0.00120429        0.00235408
      82         -0.219785        2.000000        0.00645043        0.03274406        0.07244277        0.02053739        0.00190327        0.00045656        0.00360939        0.00042365        0.00215310
      83         -0.219021        2.000000        0.00436066        0.03551146        0.10739834        0.02444566        0.00218735        0.00127904        0.00708840        0.00079652        0.00116082
      84         -0.218563        2.000000        0.00783659        0.02806444        0.09723858        0.04351923        0.00328842        0.00135569        0.00599653        0.00100463        0.00172271
      85         -0.218032        2.000000        0.00534268        0.04319780        0.11526051        0.04604595        0.00221882        0.00070358        0.00698693        0.00087187        0.00292774
      86         -0.217380        2.000000        0.00670219        0.04963249        0.14265434        0.07053196        0.00384692        0.00185415        0.00453673        0.00130459        0.00326735
      87         -0.216918        2.000000        0.00630328        0.04813938        0.13846717        0.04804858        0.00257360        0.00168941        0.00574045        0.00052934        0.00447358
      88         -0.216313        2.000000        0.00654012        0.04011562        0.12583877        0.04434008        0.00214661        0.00070670        0.00624183        0.00093384        0.00380514
      89         -0.215353        2.000000        0.01362044        0.11768891        0.24626678        0.07442402        0.00660689        0.00150363        0.01161568        0.00195879        0.00540975
      90         -0.214655        2.000000        0.00607823        0.03597941        0.08164365        0.02987697        0.00183684        0.00127426        0.00704185        0.00079358        0.00208636
      91         -0.213904        2.000000        0.00854997        0.05709643        0.20164695        0.08627237        0.00383075        0.00188714        0.01057529        0.00203558        0.00408059
      92         -0.212781        2.000000        0.01053197        0.04154326        0.14400549        0.05030941        0.00361311        0.00192597        0.01337582        0.00184436        0.00284403
      93         -0.212552        2.000000        0.01603372        0.06104682        0.20456155        0.11557452        0.00740810        0.00195915        0.00756627        0.00189185        0.00600828
      94         -0.211679        2.000000        0.00548443        0.04414904        0.09893861        0.02378974        0.00228078        0.00117874        0.00726466        0.00135463        0.00246644
      95         -0.210897        2.000000        0.00369680        0.03359067        0.08060139        0.02364900        0.00159329        0.00100287        0.00679508        0.00073995        0.00144530
      96         -0.210458        2.000000        0.00337169        0.03108292        0.08733138        0.03455083        0.00192847        0.00205691        0.00747232        0.00141175        0.00168818
      97         -0.209773        2.000000        0.00871971        0.07494870        0.29345829        0.09792994        0.00561857        0.00404403        0.01753906        0.00213334        0.00510587
      98         -0.208475        2.000000        0.00664903        0.06142243        0.20658162        0.05027335        0.00328466        0.00311248        0.01961284        0.00195594        0.00307237
      99         -0.207449        2.000000        0.01082290        0.03290430        0.09844562        0.05127757        0.00343498        0.00109468        0.01913806        0.00131313        0.00214893
     100         -0.206890        2.000000        0.01246690        0.09424483        0.18420224        0.10915260        0.00607107        0.00244088        0.01628868        0.00437567        0.00355942
     101         -0.206631        2.000000        0.01383053        0.14546196        0.16661449        0.12218046        0.00541125        0.00338713        0.01134445        0.00414193        0.00749972
     102         -0.205812        2.000000        0.01818189        0.10374683        0.16513501        0.07842569        0.00574409        0.00146419        0.01492836        0.00312028        0.00671771
     103         -0.204724        2.000000        0.01808185        0.10777299        0.22587931        0.15366394        0.00955323        0.00467560        0.02260756        0.00349752        0.00467305
     104         -0.203136        2.000000        0.01417408        0.07795796        0.12500167        0.07093458        0.00327833        0.00252116        0.01617431        0.00171242        0.00599155
     105         -0.203091        2.000000        0.01243658        0.05030900        0.11745903        0.08029248        0.00592378        0.00204295        0.01076419        0.00225637        0.00391023
     106         -0.202678        2.000000        0.00292642        0.05141073        0.08882218        0.07165390        0.00201550        0.00255732        0.01158954        0.00228163        0.00218916
     107         -0.202422        2.000000        0.01013347        0.11086131        0.12327074        0.11558779        0.00523977        0.00423871        0.01589416        0.00233553        0.00384631
     108         -0.200532        2.000000        0.01213311        0.08907055        0.16875709        0.07916046        0.00384325        0.00274283        0.01878146        0.00308919        0.00684539
     109         -0.200313        2.000000        0.01521460        0.04401757        0.14234542        0.10638205        0.00879633        0.00244061        0.01694569        0.00127927        0.00533150
     110         -0.199588        2.000000        0.02217350        0.07202854        0.11893393        0.07885932        0.00808716        0.00152953        0.01399712        0.00250841        0.00591100
     111         -0.198178        2.000000        0.01603292        0.10254214        0.12970977        0.10050392        0.00674054        0.00481556        0.01634308        0.00170271        0.00486287
     112         -0.197892        2.000000        0.01948365        0.12859909        0.16559847        0.12961506        0.00583649        0.00274419        0.01400922        0.00403897        0.01069724
     113         -0.197142        2.000000        0.02485317        0.09466819        0.22890763        0.10637833        0.00773659        0.00279378        0.02407470        0.00269651        0.00932981
     114         -0.196347        2.000000        0.01647001        0.11532575        0.20046959        0.09675410        0.00804817        0.00400042        0.02419702        0.00516711        0.00383483
     115         -0.195165        2.000000        0.01492170        0.05506528        0.12162992        0.05164129        0.00551810        0.00153914        0.01407157        0.00136882        0.00439972
     116         -0.194554        2.000000        0.01580837        0.08923688        0.19125683        0.10640948        0.00696731        0.00286443        0.02124693        0.00462722        0.00389081
     117         -0.194066        2.000000        0.02479807        0.17977430        0.20680481        0.05147774        0.00334142        0.00336414        0.02259178        0.00372925        0.01435872
     118         -0.193646        2.000000        0.01861229        0.12309351        0.21353873        0.08867478        0.00725031        0.00256982        0.02987700        0.00328954        0.00782077
     119         -0.193089        2.000000        0.02043731        0.11025708        0.11393659        0.10767214        0.00946023        0.00215095        0.00858123        0.00146442        0.00772545
     120         -0.191700        2.000000        0.03355743        0.16071771        0.22885082        0.11520986        0.01177014        0.00361947        0.01998602        0.00375516        0.01476828
     121         -0.191069        2.000000        0.00665891        0.03873002        0.16877073        0.04921593        0.00326387        0.00389756        0.01716528        0.00203454        0.00515277
     122         -0.190301        2.000000        0.01453217        0.15118870        0.17585176        0.17088099        0.00911961        0.00622125        0.02094207        0.00587401        0.01112541
     123         -0.188850        2.000000        0.01441178        0.11778920        0.23895324        0.15187643        0.00925168        0.00675157        0.02506214        0.00512791        0.00443948
     124         -0.188151        2.000000        0.00786390        0.03092212        0.18991085        0.05194266        0.00511611        0.00267691        0.02024515        0.00384247        0.00346582
     125         -0.186877        2.000000        0.02198172        0.15986851        0.20938769        0.17488243        0.01202052        0.00385701        0.01653239        0.00739400        0.01103101
     126         -0.184851        2.000000        0.01194724        0.15292390        0.19017398        0.16354657        0.01100116        0.00630479        0.02448068        0.00537292        0.01055037
     127         -0.183426        2.000000        0.02417373        0.16310444        0.23320222        0.15693486        0.01101786        0.00505258        0.03494191        0.00596850        0.01330256
     128         -0.182459        2.000000        0.00663051        0.05470858        0.20833408        0.07451677        0.00450015        0.00252739        0.04371949        0.00520158        0.00322219
     129         -0.180118        2.000000        0.01774537        0.11694049        0.22818767        0.16894720        0.01228278        0.00567780        0.02720949        0.00806223        0.01212843
     130         -0.178333        2.000000        0.01714431        0.10749429        0.23530924        0.09843048        0.00545488        0.00402033        0.04471387        0.00465512        0.01259319
     131         -0.177290        2.000000        0.01182429        0.17195336        0.22124434        0.06582779        0.01107174        0.00698551        0.03335404        0.00797404        0.00687594
     132         -0.175458        2.000000        0.01410123        0.11968959        0.27870762        0.09028001        0.00583003        0.00687744        0.04000415        0.00745419        0.01201941
     133         -0.174274        2.000000        0.02098913        0.16882060        0.23908290        0.15566160        0.00964929        0.00683156        0.03372038        0.00962810        0.01841093
     134         -0.173051        2.000000        0.01107424        0.10064728        0.27192283        0.12253450        0.01020268        0.00663229        0.04690848        0.00725595        0.00658922
     135         -0.172298        2.000000        0.01638922        0.15116375        0.23514980        0.18214600        0.01208812        0.00855768        0.02568451        0.00916723        0.01561033
     136         -0.169457        2.000000        0.01465202        0.08681797        0.21681765        0.07011170        0.01038757        0.00587375        0.04640479        0.00363896        0.00350020
     137         -0.168615        2.000000        0.01132441        0.11526724        0.14122673        0.04818241        0.01112408        0.00446637        0.01621780        0.00592929        0.00423726
     138         -0.167968        2.000000        0.01652051        0.11312077        0.22487726        0.10137398        0.01160185        0.00689624        0.03432781        0.00710142        0.00691895
     139         -0.167580        2.000000        0.00882079        0.08082336        0.11812323        0.05500138        0.00659614        0.00615502        0.01599673        0.00378650        0.00510373
     140         -0.166091        2.000000        0.00627110        0.04206610        0.07178822        0.02380515        0.00433607        0.00148305        0.00888194        0.00212468        0.00292176
     141         -0.163535        2.000000        0.00066083        0.00480661        0.01090595        0.00284604        0.00035949        0.00024144        0.00160426        0.00021551        0.00046298
     142         -0.154046        2.000000        0.00009284        0.00092403        0.00307777        0.00091998        0.00006505        0.00006417        0.00046162        0.00005400        0.00009291
     143         -0.148970        2.000000        0.00005033        0.00026279        0.00124250        0.00094396        0.00003841        0.00003478        0.00009577        0.00006018        0.00003107
     144         -0.147384        2.000000        0.00014371        0.00105945        0.00146568        0.00116270        0.00006754        0.00007488        0.00023459        0.00003118        0.00006579