 DBCSR| CPU Multiplication driver                                           XSMM
 DBCSR| Multrec recursion limit                                              512
 DBCSR| Multiplication stack size                                           1000
 DBCSR| Maximum elements for images                                    UNLIMITED
 DBCSR| Multiplicative factor virtual images                                   1
 DBCSR| Use multiplication densification                                       T
 DBCSR| Multiplication size stacks                                             3
 DBCSR| Number of 3D layers                                               SINGLE
 DBCSR| Use MPI memory allocation                                              T
 DBCSR| Use RMA algorithm                                                      F
 DBCSR| Use Communication thread                                               T
 DBCSR| Communication thread load                                             87


  **** **** ******  **  PROGRAM STARTED AT               2024-10-12 09:41:57.490
 ***** ** ***  *** **   PROGRAM STARTED ON                  nia0271.scinet.local
 **    ****   ******    PROGRAM STARTED BY                              ekadashi
 ***** **    ** ** **   PROGRAM PROCESS ID                                117288
  **** **  *******  **  PROGRAM STARTED IN /gpfs/fs0/scratch/t/tzeng/ekadashi/Li
                                           bra_CP2K/SiGe_Hetero/step2/job1

 CP2K| version string:                                          CP2K version 7.1
 CP2K| source code revision number:                                  git:e635599
 CP2K| cp2kflags: libint fftw3 libxc parallel mpi3 scalapack xsmm plumed2       
 CP2K| is freely available from                            https://www.cp2k.org/
 CP2K| Program compiled at                       Tue 15 Sep 2020 05:43:08 PM -00
 CP2K| Program compiled on                          build-node2.computecanada.ca
 CP2K| Program compiled for                                   Linux-x86-64-iomkl
 CP2K| Data directory path    /cvmfs/soft.computecanada.ca/easybuild/software/20
 CP2K| Input file name                                       Diag_libra-2001.inp
 
 GLOBAL| Force Environment number                                              1
 GLOBAL| Basis set file name                                        BASIS_MOLOPT
 GLOBAL| Potential file name                                           POTENTIAL
 GLOBAL| MM Potential file name                                     MM_POTENTIAL
 GLOBAL| Coordinate file name                                     coord-2001.xyz
 GLOBAL| Method name                                                        CP2K
 GLOBAL| Project name                                            Diag_libra-2001
 GLOBAL| Preferred FFT library                                             FFTW3
 GLOBAL| Preferred diagonalization lib.                                       SL
 GLOBAL| Run type                                                         ENERGY
 GLOBAL| All-to-all communication in single precision                          F
 GLOBAL| FFTs using library dependent lengths                                  F
 GLOBAL| Global print level                                               MEDIUM
 GLOBAL| MPI I/O enabled                                                       T
 GLOBAL| Total number of message passing processes                            40
 GLOBAL| Number of threads for this process                                    1
 GLOBAL| This output is from process                                           0
 GLOBAL| CPU model name                 Intel(R) Xeon(R) Gold 6148 CPU @ 2.40GHz
 GLOBAL| CPUID                                                              1003
 GLOBAL| Compiled for CPUID                                                 1002

 MEMORY| system memory details [Kb]
 MEMORY|                        rank 0           min           max       average
 MEMORY| MemTotal            197718156     197718156     197718156     197718156
 MEMORY| MemFree              33296968      33296968      33299340      33297757
 MEMORY| Buffers                     0             0             0             0
 MEMORY| Cached              143341624     143341624     143341624     143341624
 MEMORY| Slab                  2165872       2165872       2165872       2165872
 MEMORY| SReclaimable          1700064       1700064       1700064       1700064
 MEMORY| MemLikelyFree       178338656     178338656     178341028     178339445


 *** Fundamental physical constants (SI units) ***

 *** Literature: B. J. Mohr and B. N. Taylor,
 ***             CODATA recommended values of the fundamental physical
 ***             constants: 2006, Web Version 5.1
 ***             http://physics.nist.gov/constants

 Speed of light in vacuum [m/s]                             2.99792458000000E+08
 Magnetic constant or permeability of vacuum [N/A**2]       1.25663706143592E-06
 Electric constant or permittivity of vacuum [F/m]          8.85418781762039E-12
 Planck constant (h) [J*s]                                  6.62606896000000E-34
 Planck constant (h-bar) [J*s]                              1.05457162825177E-34
 Elementary charge [C]                                      1.60217648700000E-19
 Electron mass [kg]                                         9.10938215000000E-31
 Electron g factor [ ]                                     -2.00231930436220E+00
 Proton mass [kg]                                           1.67262163700000E-27
 Fine-structure constant                                    7.29735253760000E-03
 Rydberg constant [1/m]                                     1.09737315685270E+07
 Avogadro constant [1/mol]                                  6.02214179000000E+23
 Boltzmann constant [J/K]                                   1.38065040000000E-23
 Atomic mass unit [kg]                                      1.66053878200000E-27
 Bohr radius [m]                                            5.29177208590000E-11

 *** Conversion factors ***

 [u] -> [a.u.]                                              1.82288848426455E+03
 [Angstrom] -> [Bohr] = [a.u.]                              1.88972613288564E+00
 [a.u.] = [Bohr] -> [Angstrom]                              5.29177208590000E-01
 [a.u.] -> [s]                                              2.41888432650478E-17
 [a.u.] -> [fs]                                             2.41888432650478E-02
 [a.u.] -> [J]                                              4.35974393937059E-18
 [a.u.] -> [N]                                              8.23872205491840E-08
 [a.u.] -> [K]                                              3.15774647902944E+05
 [a.u.] -> [kJ/mol]                                         2.62549961709828E+03
 [a.u.] -> [kcal/mol]                                       6.27509468713739E+02
 [a.u.] -> [Pa]                                             2.94210107994716E+13
 [a.u.] -> [bar]                                            2.94210107994716E+08
 [a.u.] -> [atm]                                            2.90362800883016E+08
 [a.u.] -> [eV]                                             2.72113838565563E+01
 [a.u.] -> [Hz]                                             6.57968392072181E+15
 [a.u.] -> [1/cm] (wave numbers)                            2.19474631370540E+05
 [a.u./Bohr**2] -> [1/cm]                                   5.14048714338585E+03
 

 CELL_TOP| Volume [angstrom^3]:                                         6540.009
 CELL_TOP| Vector a [angstrom    15.928     0.000     0.000    |a| =      15.928
 CELL_TOP| Vector b [angstrom    -7.965    13.786     0.000    |b| =      15.922
 CELL_TOP| Vector c [angstrom    -0.000     0.000    29.784    |c| =      29.784
 CELL_TOP| Angle (b,c), alpha [degree]:                                   90.000
 CELL_TOP| Angle (a,c), beta  [degree]:                                   90.000
 CELL_TOP| Angle (a,b), gamma [degree]:                                  120.015
 CELL_TOP| Numerically orthorhombic:                                          NO
 
 GENERATE|  Preliminary Number of Bonds generated:                             0
 GENERATE|  Achieved consistency in connectivity generation.

 CELL| Volume [angstrom^3]:                                             6540.009
 CELL| Vector a [angstrom]:      15.928     0.000     0.000    |a| =      15.928
 CELL| Vector b [angstrom]:      -7.965    13.786     0.000    |b| =      15.922
 CELL| Vector c [angstrom]:      -0.000     0.000    29.784    |c| =      29.784
 CELL| Angle (b,c), alpha [degree]:                                       90.000
 CELL| Angle (a,c), beta  [degree]:                                       90.000
 CELL| Angle (a,b), gamma [degree]:                                      120.015
 CELL| Numerically orthorhombic:                                              NO

 CELL_REF| Volume [angstrom^3]:                                         6540.009
 CELL_REF| Vector a [angstrom    15.928     0.000     0.000    |a| =      15.928
 CELL_REF| Vector b [angstrom    -7.965    13.786     0.000    |b| =      15.922
 CELL_REF| Vector c [angstrom    -0.000     0.000    29.784    |c| =      29.784
 CELL_REF| Angle (b,c), alpha [degree]:                                   90.000
 CELL_REF| Angle (a,c), beta  [degree]:                                   90.000
 CELL_REF| Angle (a,b), gamma [degree]:                                  120.015
 CELL_REF| Numerically orthorhombic:                                          NO

 *******************************************************************************
 *******************************************************************************
 **                                                                           **
 **     #####                         ##              ##                      **
 **    ##   ##            ##          ##              ##                      **
 **   ##     ##                       ##            ######                    **
 **   ##     ##  ##   ##  ##   #####  ##  ##   ####   ##    #####    #####    **
 **   ##     ##  ##   ##  ##  ##      ## ##   ##      ##   ##   ##  ##   ##   **
 **   ##  ## ##  ##   ##  ##  ##      ####     ###    ##   ######   ######    **
 **    ##  ###   ##   ##  ##  ##      ## ##      ##   ##   ##       ##        **
 **     #######   #####   ##   #####  ##  ##  ####    ##    #####   ##        **
 **           ##                                                    ##        **
 **                                                                           **
 **                                                ... make the atoms dance   **
 **                                                                           **
 **            Copyright (C) by CP2K developers group (2000 - 2019)           **
 **                                                                           **
 *******************************************************************************

 DFT| Spin restricted Kohn-Sham (RKS) calculation                            RKS
 DFT| Multiplicity                                                             1
 DFT| Number of spin states                                                    1
 DFT| Charge                                                                   0
 DFT| Self-interaction correction (SIC)                                       NO
 DFT| Cutoffs: density                                              1.000000E-10
 DFT|          gradient                                             1.000000E-10
 DFT|          tau                                                  1.000000E-10
 DFT|          cutoff_smoothing_range                               0.000000E+00
 DFT| XC density smoothing                                                  NONE
 DFT| XC derivatives                                                          PW
 FUNCTIONAL| ROUTINE=NEW
 FUNCTIONAL| PBE:
 FUNCTIONAL| J.P.Perdew, K.Burke, M.Ernzerhof, Phys. Rev. Letter, vol. 77, n 18,
 FUNCTIONAL|  pp. 3865-3868, (1996){spin unpolarized}                           
 vdW POTENTIAL|                                                   Pair Potential
 vdW POTENTIAL|          DFT-D3 (Version 3.1)
 vdW POTENTIAL|          Potential Form: S. Grimme et al, JCP 132: 154104 (2010)
 vdW POTENTIAL|          Zero Damping
 vdW POTENTIAL|          Cutoff Radius [Bohr]:                             30.24
 vdW POTENTIAL|          s6 Scaling Factor:                               1.0000
 vdW POTENTIAL|          sr6 Scaling Factor:                              1.2170
 vdW POTENTIAL|          s8 Scaling Factor:                               0.7220
 vdW POTENTIAL|          Cutoff for CN calculation:                   0.1000E-05

 QS| Method:                                                                 GPW
 QS| Density plane wave grid type                        NON-SPHERICAL FULLSPACE
 QS| Number of grid levels:                                                   16
 QS| Density cutoff [a.u.]:                                                250.0
 QS| Multi grid cutoff [a.u.]: 1) grid level                               250.0
 QS|                           2) grid level                                83.3
 QS|                           3) grid level                                27.8
 QS|                           4) grid level                                 9.3
 QS|                           5) grid level                                 3.1
 QS|                           6) grid level                                 1.0
 QS|                           7) grid level                                 0.3
 QS|                           8) grid level                                 0.1
 QS|                           9) grid level                                 0.0
 QS|                          10) grid level                                 0.0
 QS|                          11) grid level                                 0.0
 QS|                          12) grid level                                 0.0
 QS|                          13) grid level                                 0.0
 QS|                          14) grid level                                 0.0
 QS|                          15) grid level                                 0.0
 QS|                          16) grid level                                 0.0
 QS| Grid level progression factor:                                          3.0
 QS| Relative density cutoff [a.u.]:                                        25.0
 QS| Consistent realspace mapping and integration 
 QS| Interaction thresholds: eps_pgf_orb:                                1.0E-07
 QS|                         eps_filter_matrix:                          0.0E+00
 QS|                         eps_core_charge:                            1.0E-16
 QS|                         eps_rho_gspace:                             1.0E-14
 QS|                         eps_rho_rspace:                             1.0E-14
 QS|                         eps_gvg_rspace:                             1.0E-07
 QS|                         eps_ppl:                                    1.0E-02
 QS|                         eps_ppnl:                                   1.0E-09


 ATOMIC KIND INFORMATION

  1. Atomic kind: Si                                    Number of atoms:      32

     Orbital Basis Set                                     DZVP-MOLOPT-SR-GTH-q4

       Number of orbital shell sets:                                           1
       Number of orbital shells:                                               5
       Number of primitive Cartesian functions:                                4
       Number of Cartesian basis functions:                                   14
       Number of spherical basis functions:                                   13
       Norm type:                                                              2

       Normalised Cartesian orbitals:

                        Set   Shell   Orbital            Exponent    Coefficient

                          1       1    2s                1.256768       0.294045
                                                         0.506394      -0.015884
                                                         0.238884      -0.207657
                                                         0.087337      -0.036225

                          1       2    3s                1.256768      -1.532347
                                                         0.506394       0.524539
                                                         0.238884       0.025013
                                                         0.087337      -0.052203

                          1       3    3px               1.256768       0.152274
                                                         0.506394      -0.154145
                                                         0.238884      -0.115581
                                                         0.087337      -0.028372
                          1       3    3py               1.256768       0.152274
                                                         0.506394      -0.154145
                                                         0.238884      -0.115581
                                                         0.087337      -0.028372
                          1       3    3pz               1.256768       0.152274
                                                         0.506394      -0.154145
                                                         0.238884      -0.115581
                                                         0.087337      -0.028372

                          1       4    4px               1.256768       0.313378
                                                         0.506394      -0.415360
                                                         0.238884      -0.022539
                                                         0.087337       0.078473
                          1       4    4py               1.256768       0.313378
                                                         0.506394      -0.415360
                                                         0.238884      -0.022539
                                                         0.087337       0.078473
                          1       4    4pz               1.256768       0.313378
                                                         0.506394      -0.415360
                                                         0.238884      -0.022539
                                                         0.087337       0.078473

                          1       5    4dx2              1.256768       0.325879
                                                         0.506394       0.163831
                                                         0.238884       0.044076
                                                         0.087337       0.010608
                          1       5    4dxy              1.256768       0.564439
                                                         0.506394       0.283764
                                                         0.238884       0.076342
                                                         0.087337       0.018373
                          1       5    4dxz              1.256768       0.564439
                                                         0.506394       0.283764
                                                         0.238884       0.076342
                                                         0.087337       0.018373
                          1       5    4dy2              1.256768       0.325879
                                                         0.506394       0.163831
                                                         0.238884       0.044076
                                                         0.087337       0.010608
                          1       5    4dyz              1.256768       0.564439
                                                         0.506394       0.283764
                                                         0.238884       0.076342
                                                         0.087337       0.018373
                          1       5    4dz2              1.256768       0.325879
                                                         0.506394       0.163831
                                                         0.238884       0.044076
                                                         0.087337       0.010608

     GTH Potential information for                                       GTH-PBE

       Description:                       Goedecker-Teter-Hutter pseudopotential
                                           Goedecker et al., PRB 54, 1703 (1996)
                                          Hartwigsen et al., PRB 58, 3641 (1998)
                                                      Krack, TCA 114, 145 (2005)

       Gaussian exponent of the core charge distribution:               2.582645
       Electronic configuration (s p d ...):                               2   2

       Parameters of the local part of the GTH pseudopotential:

                          rloc        C1          C2          C3          C4
                        0.440000   -6.269288

       Parameters of the non-local part of the GTH pseudopotential:

                   l      r(l)      h(i,j,l)

                   0    0.435634    8.951742   -2.706271
                                   -2.706271    3.493781
                   1    0.497942    2.431277

  2. Atomic kind: H                                     Number of atoms:      64

     Orbital Basis Set                                     DZVP-MOLOPT-SR-GTH-q1

       Number of orbital shell sets:                                           1
       Number of orbital shells:                                               3
       Number of primitive Cartesian functions:                                5
       Number of Cartesian basis functions:                                    5
       Number of spherical basis functions:                                    5
       Norm type:                                                              2

       Normalised Cartesian orbitals:

                        Set   Shell   Orbital            Exponent    Coefficient

                          1       1    2s               10.068468      -0.133023
                                                         2.680223      -0.177618
                                                         0.791502      -0.258419
                                                         0.239116      -0.107525
                                                         0.082193      -0.014019

                          1       2    3s               10.068468       0.344673
                                                         2.680223       1.819821
                                                         0.791502      -0.999069
                                                         0.239116       0.017430
                                                         0.082193       0.082660

                          1       3    3px              10.068468       0.155326
                                                         2.680223       0.367157
                                                         0.791502       0.311480
                                                         0.239116       0.080105
                                                         0.082193       0.033440
                          1       3    3py              10.068468       0.155326
                                                         2.680223       0.367157
                                                         0.791502       0.311480
                                                         0.239116       0.080105
                                                         0.082193       0.033440
                          1       3    3pz              10.068468       0.155326
                                                         2.680223       0.367157
                                                         0.791502       0.311480
                                                         0.239116       0.080105
                                                         0.082193       0.033440

     GTH Potential information for                                       GTH-PBE

       Description:                       Goedecker-Teter-Hutter pseudopotential
                                           Goedecker et al., PRB 54, 1703 (1996)
                                          Hartwigsen et al., PRB 58, 3641 (1998)
                                                      Krack, TCA 114, 145 (2005)

       Gaussian exponent of the core charge distribution:              12.500000
       Electronic configuration (s p d ...):                                   1

       Parameters of the local part of the GTH pseudopotential:

                          rloc        C1          C2          C3          C4
                        0.200000   -4.178900    0.724463

  3. Atomic kind: Ge                                    Number of atoms:      32

     Orbital Basis Set                                     DZVP-MOLOPT-SR-GTH-q4

       Number of orbital shell sets:                                           1
       Number of orbital shells:                                               5
       Number of primitive Cartesian functions:                                4
       Number of Cartesian basis functions:                                   14
       Number of spherical basis functions:                                   13
       Norm type:                                                              2

       Normalised Cartesian orbitals:

                        Set   Shell   Orbital            Exponent    Coefficient

                          1       1    2s                3.751626      -0.120003
                                                         1.419172       0.428185
                                                         0.322428      -0.228255
                                                         0.110740      -0.068975

                          1       2    3s                3.751626       0.273885
                                                         1.419172      -0.836040
                                                         0.322428       0.584240
                                                         0.110740      -0.261045

                          1       3    3px               3.751626       0.064521
                                                         1.419172       0.216179
                                                         0.322428      -0.253385
                                                         0.110740      -0.035002
                          1       3    3py               3.751626       0.064521
                                                         1.419172       0.216179
                                                         0.322428      -0.253385
                                                         0.110740      -0.035002
                          1       3    3pz               3.751626       0.064521
                                                         1.419172       0.216179
                                                         0.322428      -0.253385
                                                         0.110740      -0.035002

                          1       4    4px               3.751626      -0.201632
                                                         1.419172      -0.391570
                                                         0.322428       0.486065
                                                         0.110740      -0.127990
                          1       4    4py               3.751626      -0.201632
                                                         1.419172      -0.391570
                                                         0.322428       0.486065
                                                         0.110740      -0.127990
                          1       4    4pz               3.751626      -0.201632
                                                         1.419172      -0.391570
                                                         0.322428       0.486065
                                                         0.110740      -0.127990

                          1       5    4dx2              3.751626      -0.158822
                                                         1.419172       0.193543
                                                         0.322428       0.178643
                                                         0.110740       0.009408
                          1       5    4dxy              3.751626      -0.275088
                                                         1.419172       0.335227
                                                         0.322428       0.309418
                                                         0.110740       0.016296
                          1       5    4dxz              3.751626      -0.275088
                                                         1.419172       0.335227
                                                         0.322428       0.309418
                                                         0.110740       0.016296
                          1       5    4dy2              3.751626      -0.158822
                                                         1.419172       0.193543
                                                         0.322428       0.178643
                                                         0.110740       0.009408
                          1       5    4dyz              3.751626      -0.275088
                                                         1.419172       0.335227
                                                         0.322428       0.309418
                                                         0.110740       0.016296
                          1       5    4dz2              3.751626      -0.158822
                                                         1.419172       0.193543
                                                         0.322428       0.178643
                                                         0.110740       0.009408

     GTH Potential information for                                       GTH-PBE

       Description:                       Goedecker-Teter-Hutter pseudopotential
                                           Goedecker et al., PRB 54, 1703 (1996)
                                          Hartwigsen et al., PRB 58, 3641 (1998)
                                                      Krack, TCA 114, 145 (2005)

       Gaussian exponent of the core charge distribution:               1.714678
       Electronic configuration (s p d ...):                               2   2

       Parameters of the local part of the GTH pseudopotential:

                          rloc        C1          C2          C3          C4
                        0.540000

       Parameters of the non-local part of the GTH pseudopotential:

                   l      r(l)      h(i,j,l)

                   0    0.421865    7.510241   -0.588108   -1.447976
                                   -0.588108   -1.595888    3.738657
                                   -1.447976    3.738657   -2.967467
                   1    0.567529    0.913860    0.546875
                                    0.546875   -0.647072
                   2    0.813914    0.197177


 MOLECULE KIND INFORMATION


 All atoms are their own molecule, skipping detailed information


 TOTAL NUMBERS AND MAXIMUM NUMBERS

  Total number of            - Atomic kinds:                                   3
                             - Atoms:                                        128
                             - Shell sets:                                   128
                             - Shells:                                       512
                             - Primitive Cartesian functions:                576
                             - Cartesian basis functions:                   1216
                             - Spherical basis functions:                   1152

  Maximum angular momentum of- Orbital basis functions:                        2
                             - Local part of the GTH pseudopotential:          2
                             - Non-local part of the GTH pseudopotential:      4


 MODULE QUICKSTEP:  ATOMIC COORDINATES IN angstrom

  Atom  Kind  Element       X           Y           Z          Z(eff)       Mass

       1     1 Si  14    0.280222    2.359864    1.900110      4.00      28.0855
       2     1 Si  14    2.212331    1.114339    2.346149      4.00      28.0855
       3     1 Si  14    4.040961    2.231658    1.513959      4.00      28.0855
       4     1 Si  14    6.007781    1.160079    2.333546      4.00      28.0855
       5     1 Si  14   -1.884954    5.705264    1.879692      4.00      28.0855
       6     1 Si  14    0.094306    4.544492    2.645858      4.00      28.0855
       7     1 Si  14    1.969264    5.806690    1.820120      4.00      28.0855
       8     1 Si  14    4.115757    4.579067    2.314206      4.00      28.0855
       9     2 H    1    0.632310    2.298560    0.426267      1.00       1.0079
      10     2 H    1    2.246575    0.846934    3.825805      1.00       1.0079
      11     2 H    1    1.762772    3.626584    5.237613      1.00       1.0079
      12     2 H    1    3.739698    2.235027    8.917364      1.00       1.0079
      13     2 H    1    3.978171    2.292014    0.048289      1.00       1.0079
      14     2 H    1    5.938080    1.067504    3.814021      1.00       1.0079
      15     2 H    1   -1.763639    3.524740    5.056176      1.00       1.0079
      16     2 H    1   -0.242596    2.903053    9.342903      1.00       1.0079
      17     2 H    1   -1.577613    5.728029    0.354878      1.00       1.0079
      18     2 H    1    0.043927    4.430575    4.153608      1.00       1.0079
      19     2 H    1    3.923123    0.001433    5.128449      1.00       1.0079
      20     2 H    1    1.747644    5.961390    9.106116      1.00       1.0079
      21     2 H    1    1.635580    5.814881    0.311408      1.00       1.0079
      22     2 H    1    4.257150    4.283398    3.792801      1.00       1.0079
      23     2 H    1    0.134826    0.247405    5.574584      1.00       1.0079
      24     2 H    1   -2.246132    5.988937    8.800973      1.00       1.0079
      25     3 Ge  32    1.885296    3.656713    6.846060      4.00      72.6400
      26     3 Ge  32    3.878967    2.376048    7.414810      4.00      72.6400
      27     3 Ge  32   -1.937440    3.414329    6.534918      4.00      72.6400
      28     3 Ge  32   -0.086735    2.618957    7.792285      4.00      72.6400
      29     3 Ge  32    3.945679    0.050106    6.656224      4.00      72.6400
      30     3 Ge  32    1.767025    5.990788    7.566267      4.00      72.6400
      31     3 Ge  32    0.053195    0.267918    7.136093      4.00      72.6400
      32     3 Ge  32   -2.210321    5.781351    7.244678      4.00      72.6400
      33     1 Si  14    8.017795    2.266040    1.782760      4.00      28.0855
      34     1 Si  14   10.070853    1.086511    2.290462      4.00      28.0855
      35     1 Si  14   12.165810    2.274085    1.789759      4.00      28.0855
      36     1 Si  14   14.247981    1.210065    2.397796      4.00      28.0855
      37     1 Si  14    6.183933    5.737049    1.690949      4.00      28.0855
      38     1 Si  14    8.189508    4.614377    2.486676      4.00      28.0855
      39     1 Si  14   10.025581    5.740353    1.625553      4.00      28.0855
      40     1 Si  14   11.992943    4.540947    2.244110      4.00      28.0855
      41     2 H    1    8.002929    2.486909    0.362917      1.00       1.0079
      42     2 H    1   10.029614    0.950180    3.727794      1.00       1.0079
      43     2 H    1    9.658441    3.316981    5.097886      1.00       1.0079
      44     2 H    1   12.041890    2.071280    8.778131      1.00       1.0079
      45     2 H    1   12.114041    2.309860    0.295450      1.00       1.0079
      46     2 H    1   14.207927    0.863815    3.869138      1.00       1.0079
      47     2 H    1    6.206447    3.536194    5.231722      1.00       1.0079
      48     2 H    1    7.875192    2.222038    9.147436      1.00       1.0079
      49     2 H    1    6.419411    5.594353    0.228903      1.00       1.0079
      50     2 H    1    8.118757    4.716111    3.969424      1.00       1.0079
      51     2 H    1   12.350988   -0.797800    5.390436      1.00       1.0079
      52     2 H    1   10.135025    5.721543    8.809341      1.00       1.0079
      53     2 H    1    9.932032    5.603605    0.127976      1.00       1.0079
      54     2 H    1   12.032623    4.708619    3.729279      1.00       1.0079
      55     2 H    1    7.937433    0.290303    5.215971      1.00       1.0079
      56     2 H    1    5.963737    5.814583    9.041565      1.00       1.0079
      57     3 Ge  32    9.988610    3.230124    6.607161      4.00      72.6400
      58     3 Ge  32   12.110712    2.088969    7.214990      4.00      72.6400
      59     3 Ge  32    6.061388    3.260230    6.741350      4.00      72.6400
      60     3 Ge  32    8.057446    2.258443    7.612696      4.00      72.6400
      61     3 Ge  32   12.183019   -0.347094    6.822032      4.00      72.6400
      62     3 Ge  32    9.739056    5.624474    7.268794      4.00      72.6400
      63     3 Ge  32    7.928574   -0.002835    6.688029      4.00      72.6400
      64     3 Ge  32    5.870419    5.675671    7.489624      4.00      72.6400
      65     1 Si  14   -3.830891    9.149865    1.476982      4.00      28.0855
      66     1 Si  14   -1.801499    8.094981    2.288858      4.00      28.0855
      67     1 Si  14    0.222733    9.192426    1.556642      4.00      28.0855
      68     1 Si  14    2.241010    8.267672    2.109022      4.00      28.0855
      69     1 Si  14   -5.845594   12.665088    1.438817      4.00      28.0855
      70     1 Si  14   -3.936082   11.428776    2.097580      4.00      28.0855
      71     1 Si  14   -1.825165   12.731468    1.524271      4.00      28.0855
      72     1 Si  14    0.172144   11.572887    2.219300      4.00      28.0855
      73     2 H    1   -4.070808    8.872514    0.068956      1.00       1.0079
      74     2 H    1   -2.051641    8.062385    3.769433      1.00       1.0079
      75     2 H    1   -1.695027   10.452411    5.170491      1.00       1.0079
      76     2 H    1   -0.376987    9.008754    9.105084      1.00       1.0079
      77     2 H    1   -0.080481    9.245836    0.044844      1.00       1.0079
      78     2 H    1    2.089149    8.323984    3.532411      1.00       1.0079
      79     2 H    1   -6.656036   10.644467    5.469128      1.00       1.0079
      80     2 H    1   -3.905112    8.808592    8.773476      1.00       1.0079
      81     2 H    1   -5.767628   12.882082   -0.088099      1.00       1.0079
      82     2 H    1   -4.057606   11.222833    3.555846      1.00       1.0079
      83     2 H    1   -0.122939    7.489936    5.014434      1.00       1.0079
      84     2 H    1   -2.064779   12.706679    8.941976      1.00       1.0079
      85     2 H    1   -1.969194   12.697447    0.068866      1.00       1.0079
      86     2 H    1    0.123857   11.659215    3.716989      1.00       1.0079
      87     2 H    1   -4.096685    6.610707    4.779301      1.00       1.0079
      88     2 H    1   -5.456664   12.851440    9.183909      1.00       1.0079
      89     3 Ge  32   -2.057299   10.315557    6.601601      4.00      72.6400
      90     3 Ge  32   -0.249101    9.110649    7.579848      4.00      72.6400
      91     3 Ge  32   -6.205073   10.227235    6.941630      4.00      72.6400
      92     3 Ge  32   -4.077201    9.040938    7.202652      4.00      72.6400
      93     3 Ge  32   -0.257775    7.002530    6.462324      4.00      72.6400
      94     3 Ge  32   -2.044077   12.693795    7.365271      4.00      72.6400
      95     3 Ge  32   -4.197438    6.807536    6.324402      4.00      72.6400
      96     3 Ge  32   -5.928471   12.739824    7.701716      4.00      72.6400
      97     1 Si  14    4.177754    9.251556    1.306835      4.00      28.0855
      98     1 Si  14    6.054751    8.031611    2.181469      4.00      28.0855
      99     1 Si  14    8.131125    9.062003    1.498173      4.00      28.0855
     100     1 Si  14   10.147373    8.068966    2.243919      4.00      28.0855
     101     1 Si  14    2.093072   12.647166    1.410445      4.00      28.0855
     102     1 Si  14    4.193909   11.528595    1.988453      4.00      28.0855
     103     1 Si  14    6.220175   12.651461    1.406641      4.00      28.0855
     104     1 Si  14    8.116035   11.311759    1.974591      4.00      28.0855
     105     2 H    1    4.044441    9.287443   -0.141694      1.00       1.0079
     106     2 H    1    5.852431    8.275671    3.563592      1.00       1.0079
     107     2 H    1    6.369871   10.305427    5.861985      1.00       1.0079
     108     2 H    1    7.954018    9.024630    9.771126      1.00       1.0079
     109     2 H    1    8.004908    8.879141    0.042103      1.00       1.0079
     110     2 H    1   10.228779    8.128463    3.766107      1.00       1.0079
     111     2 H    1    1.819715   10.187125    5.346712      1.00       1.0079
     112     2 H    1    3.663249    8.988884    9.248361      1.00       1.0079
     113     2 H    1    1.895656   12.789347   -0.081146      1.00       1.0079
     114     2 H    1    4.393085   11.383504    3.451090      1.00       1.0079
     115     2 H    1    8.165663    7.490559    5.451230      1.00       1.0079
     116     2 H    1    6.271418   12.826978    9.520850      1.00       1.0079
     117     2 H    1    6.435769   12.998725   -0.059966      1.00       1.0079
     118     2 H    1    8.031787   11.269898    3.436354      1.00       1.0079
     119     2 H    1    4.027440    6.799693    5.366239      1.00       1.0079
     120     2 H    1    2.131714   12.812263    9.026398      1.00       1.0079
     121     3 Ge  32    6.017542   10.344192    7.393775      4.00      72.6400
     122     3 Ge  32    7.892606    8.997605    8.211887      4.00      72.6400
     123     3 Ge  32    1.784638   10.171212    6.917491      4.00      72.6400
     124     3 Ge  32    3.864578    9.099689    7.716871      4.00      72.6400
     125     3 Ge  32    7.771022    6.930263    6.834957      4.00      72.6400
     126     3 Ge  32    6.236404   12.648718    8.008554      4.00      72.6400
     127     3 Ge  32    3.859436    6.872108    6.863863      4.00      72.6400
     128     3 Ge  32    2.063517   12.596374    7.492721      4.00      72.6400




 SCF PARAMETERS         Density guess:                                   RESTART
                        --------------------------------------------------------
                        max_scf:                                              50
                        max_scf_history:                                       0
                        max_diis:                                              4
                        --------------------------------------------------------
                        eps_scf:                                        1.00E-06
                        eps_scf_history:                                0.00E+00
                        eps_diis:                                       1.00E-01
                        eps_eigval:                                     1.00E-05
                        --------------------------------------------------------
                        level_shift [a.u.]:                                 0.00
                        added MOs                                        50    0
                        --------------------------------------------------------
                        Mixing method:                            BROYDEN_MIXING
                                                charge density mixing in g-space
                        --------------------------------------------------------
                        No outer SCF

 PW_GRID| Information for grid number                                          1
 PW_GRID| Grid distributed over                                    40 processors
 PW_GRID| Real space group dimensions                                    40    1
 PW_GRID| the grid is blocked:                                                NO
 PW_GRID| Cutoff [a.u.]                                                    250.0
 PW_GRID| spherical cutoff:                                                   NO
 PW_GRID|   Bounds   1           -108     107                Points:         216
 PW_GRID|   Bounds   2           -108     107                Points:         216
 PW_GRID|   Bounds   3           -202     202                Points:         405
 PW_GRID| Volume element (a.u.^3)  0.2336E-02     Volume (a.u.^3)     44134.1676
 PW_GRID| Grid span                                                    FULLSPACE
 PW_GRID|   Distribution                         Average         Max         Min
 PW_GRID|   G-Vectors                           472392.0      472392      472392
 PW_GRID|   G-Rays                                2187.0        2187        2187
 PW_GRID|   Real Space Points                   472392.0      524880      437400

 PW_GRID| Information for grid number                                          2
 PW_GRID| Number of the reference grid                                         1
 PW_GRID| Grid distributed over                                    40 processors
 PW_GRID| Real space group dimensions                                    40    1
 PW_GRID| the grid is blocked:                                                NO
 PW_GRID| Cutoff [a.u.]                                                     83.3
 PW_GRID| spherical cutoff:                                                   NO
 PW_GRID|   Bounds   1            -62      62                Points:         125
 PW_GRID|   Bounds   2            -62      62                Points:         125
 PW_GRID|   Bounds   3           -120     119                Points:         240
 PW_GRID| Volume element (a.u.^3)  0.1177E-01     Volume (a.u.^3)     44134.1676
 PW_GRID| Grid span                                                    FULLSPACE
 PW_GRID|   Distribution                         Average         Max         Min
 PW_GRID|   G-Vectors                            93750.0       94250       92750
 PW_GRID|   G-Rays                                 750.0         754         742
 PW_GRID|   Real Space Points                    93750.0      120000       90000

 PW_GRID| Information for grid number                                          3
 PW_GRID| Number of the reference grid                                         1
 PW_GRID| Grid distributed over                                    40 processors
 PW_GRID| Real space group dimensions                                    40    1
 PW_GRID| the grid is blocked:                                                NO
 PW_GRID| Cutoff [a.u.]                                                     27.8
 PW_GRID| spherical cutoff:                                                   NO
 PW_GRID|   Bounds   1            -36      35                Points:          72
 PW_GRID|   Bounds   2            -36      35                Points:          72
 PW_GRID|   Bounds   3            -67      67                Points:         135
 PW_GRID| Volume element (a.u.^3)  0.6306E-01     Volume (a.u.^3)     44134.1676
 PW_GRID| Grid span                                                    FULLSPACE
 PW_GRID|   Distribution                         Average         Max         Min
 PW_GRID|   G-Vectors                            17496.0       17784       17208
 PW_GRID|   G-Rays                                 243.0         247         239
 PW_GRID|   Real Space Points                    17496.0       19440        9720

 PW_GRID| Information for grid number                                          4
 PW_GRID| Number of the reference grid                                         1
 PW_GRID| Grid distributed over                                    40 processors
 PW_GRID| Real space group dimensions                                    40    1
 PW_GRID| the grid is blocked:                                                NO
 PW_GRID| Cutoff [a.u.]                                                      9.3
 PW_GRID| spherical cutoff:                                                   NO
 PW_GRID|   Bounds   1            -22      22                Points:          45
 PW_GRID|   Bounds   2            -22      22                Points:          45
 PW_GRID|   Bounds   3            -40      39                Points:          80
 PW_GRID| Volume element (a.u.^3)  0.2724         Volume (a.u.^3)     44134.1676
 PW_GRID| Grid span                                                    FULLSPACE
 PW_GRID|   Distribution                         Average         Max         Min
 PW_GRID|   G-Vectors                             4050.0        4320        3690
 PW_GRID|   G-Rays                                  90.0          96          82
 PW_GRID|   Real Space Points                     4050.0        7200        3600

 PW_GRID| Information for grid number                                          5
 PW_GRID| Number of the reference grid                                         1
 PW_GRID| Grid distributed over                                    40 processors
 PW_GRID| Real space group dimensions                                     5    8
 PW_GRID| the grid is blocked:                                                NO
 PW_GRID| Cutoff [a.u.]                                                      3.1
 PW_GRID| spherical cutoff:                                                   NO
 PW_GRID|   Bounds   1            -12      11                Points:          24
 PW_GRID|   Bounds   2            -12      11                Points:          24
 PW_GRID|   Bounds   3            -22      22                Points:          45
 PW_GRID| Volume element (a.u.^3)   1.703         Volume (a.u.^3)     44134.1676
 PW_GRID| Grid span                                                    FULLSPACE
 PW_GRID|   Distribution                         Average         Max         Min
 PW_GRID|   G-Vectors                              648.0         696         600
 PW_GRID|   G-Rays                                  27.0          29          25
 PW_GRID|   Real Space Points                      648.0         675         540

 PW_GRID| Information for grid number                                          6
 PW_GRID| Number of the reference grid                                         1
 PW_GRID| Grid distributed over                                    40 processors
 PW_GRID| Real space group dimensions                                     5    8
 PW_GRID| the grid is blocked:                                                NO
 PW_GRID| Cutoff [a.u.]                                                      1.0
 PW_GRID| spherical cutoff:                                                   NO
 PW_GRID|   Bounds   1             -7       7                Points:          15
 PW_GRID|   Bounds   2             -7       7                Points:          15
 PW_GRID|   Bounds   3            -12      12                Points:          25
 PW_GRID| Volume element (a.u.^3)   7.846         Volume (a.u.^3)     44134.1676
 PW_GRID| Grid span                                                    FULLSPACE
 PW_GRID|   Distribution                         Average         Max         Min
 PW_GRID|   G-Vectors                              140.6         195         105
 PW_GRID|   G-Rays                                   9.4          13           7
 PW_GRID|   Real Space Points                      140.6         150          75

 PW_GRID| Information for grid number                                          7
 PW_GRID| Number of the reference grid                                         1
 PW_GRID| Grid distributed over                                    40 processors
 PW_GRID| Real space group dimensions                                     5    8
 PW_GRID| the grid is blocked:                                                NO
 PW_GRID| Cutoff [a.u.]                                                      0.3
 PW_GRID| spherical cutoff:                                                   NO
 PW_GRID|   Bounds   1             -4       3                Points:           8
 PW_GRID|   Bounds   2             -4       3                Points:           8
 PW_GRID|   Bounds   3             -7       7                Points:          15
 PW_GRID| Volume element (a.u.^3)   45.97         Volume (a.u.^3)     44134.1676
 PW_GRID| Grid span                                                    FULLSPACE
 PW_GRID|   Distribution                         Average         Max         Min
 PW_GRID|   G-Vectors                               24.0          48          16
 PW_GRID|   G-Rays                                   3.0           6           2
 PW_GRID|   Real Space Points                       24.0          30          15

 PW_GRID| Information for grid number                                          8
 PW_GRID| Number of the reference grid                                         1
 PW_GRID| Grid distributed over                                    40 processors
 PW_GRID| Real space group dimensions                                     5    8
 PW_GRID| the grid is blocked:                                                NO
 PW_GRID| Cutoff [a.u.]                                                      0.1
 PW_GRID| spherical cutoff:                                                   NO
 PW_GRID|   Bounds   1             -3       2                Points:           6
 PW_GRID|   Bounds   2             -3       2                Points:           6
 PW_GRID|   Bounds   3             -4       4                Points:           9
 PW_GRID| Volume element (a.u.^3)   136.2         Volume (a.u.^3)     44134.1676
 PW_GRID| Grid span                                                    FULLSPACE
 PW_GRID|   Distribution                         Average         Max         Min
 PW_GRID|   G-Vectors                                8.1          18           0
 PW_GRID|   G-Rays                                   1.4           3           0
 PW_GRID|   Real Space Points                        8.1          18           0

 PW_GRID| Information for grid number                                          9
 PW_GRID| Number of the reference grid                                         1
 PW_GRID| Grid distributed over                                    40 processors
 PW_GRID| Real space group dimensions                                     5    8
 PW_GRID| the grid is blocked:                                                NO
 PW_GRID| Cutoff [a.u.]                                                      0.0
 PW_GRID| spherical cutoff:                                                   NO
 PW_GRID|   Bounds   1             -2       1                Points:           4
 PW_GRID|   Bounds   2             -2       1                Points:           4
 PW_GRID|   Bounds   3             -3       2                Points:           6
 PW_GRID| Volume element (a.u.^3)   459.7         Volume (a.u.^3)     44134.1676
 PW_GRID| Grid span                                                    FULLSPACE
 PW_GRID|   Distribution                         Average         Max         Min
 PW_GRID|   G-Vectors                                2.4           4           0
 PW_GRID|   G-Rays                                   0.6           1           0
 PW_GRID|   Real Space Points                        2.4           6           0

 PW_GRID| Information for grid number                                         10
 PW_GRID| Number of the reference grid                                         1
 PW_GRID| Grid distributed over                                    40 processors
 PW_GRID| Real space group dimensions                                     5    8
 PW_GRID| the grid is blocked:                                                NO
 PW_GRID| Cutoff [a.u.]                                                      0.0
 PW_GRID| spherical cutoff:                                                   NO
 PW_GRID|   Bounds   1             -1       0                Points:           2
 PW_GRID|   Bounds   2             -1       0                Points:           2
 PW_GRID|   Bounds   3             -2       1                Points:           4
 PW_GRID| Volume element (a.u.^3)   2758.         Volume (a.u.^3)     44134.1676
 PW_GRID| Grid span                                                    FULLSPACE
 PW_GRID|   Distribution                         Average         Max         Min
 PW_GRID|   G-Vectors                                0.4           2           0
 PW_GRID|   G-Rays                                   0.2           1           0
 PW_GRID|   Real Space Points                        0.4           4           0

 PW_GRID| Information for grid number                                         11
 PW_GRID| Number of the reference grid                                         1
 PW_GRID| Grid distributed over                                    40 processors
 PW_GRID| Real space group dimensions                                     5    8
 PW_GRID| the grid is blocked:                                                NO
 PW_GRID| Cutoff [a.u.]                                                      0.0
 PW_GRID| spherical cutoff:                                                   NO
 PW_GRID|   Bounds   1             -1       0                Points:           2
 PW_GRID|   Bounds   2             -1       0                Points:           2
 PW_GRID|   Bounds   3             -1       0                Points:           2
 PW_GRID| Volume element (a.u.^3)   5517.         Volume (a.u.^3)     44134.1676
 PW_GRID| Grid span                                                    FULLSPACE
 PW_GRID|   Distribution                         Average         Max         Min
 PW_GRID|   G-Vectors                                0.2           2           0
 PW_GRID|   G-Rays                                   0.1           1           0
 PW_GRID|   Real Space Points                        0.2           2           0

 PW_GRID| Information for grid number                                         12
 PW_GRID| Number of the reference grid                                         1
 PW_GRID| Grid distributed over                                    40 processors
 PW_GRID| Real space group dimensions                                     5    8
 PW_GRID| the grid is blocked:                                                NO
 PW_GRID| Cutoff [a.u.]                                                      0.0
 PW_GRID| spherical cutoff:                                                   NO
 PW_GRID|   Bounds   1             -1       0                Points:           2
 PW_GRID|   Bounds   2             -1       0                Points:           2
 PW_GRID|   Bounds   3             -1       0                Points:           2
 PW_GRID| Volume element (a.u.^3)   5517.         Volume (a.u.^3)     44134.1676
 PW_GRID| Grid span                                                    FULLSPACE
 PW_GRID|   Distribution                         Average         Max         Min
 PW_GRID|   G-Vectors                                0.2           2           0
 PW_GRID|   G-Rays                                   0.1           1           0
 PW_GRID|   Real Space Points                        0.2           2           0

 PW_GRID| Information for grid number                                         13
 PW_GRID| Number of the reference grid                                         1
 PW_GRID| Grid distributed over                                    40 processors
 PW_GRID| Real space group dimensions                                     5    8
 PW_GRID| the grid is blocked:                                                NO
 PW_GRID| Cutoff [a.u.]                                                      0.0
 PW_GRID| spherical cutoff:                                                   NO
 PW_GRID|   Bounds   1             -1       0                Points:           2
 PW_GRID|   Bounds   2             -1       0                Points:           2
 PW_GRID|   Bounds   3             -1       0                Points:           2
 PW_GRID| Volume element (a.u.^3)   5517.         Volume (a.u.^3)     44134.1676
 PW_GRID| Grid span                                                    FULLSPACE
 PW_GRID|   Distribution                         Average         Max         Min
 PW_GRID|   G-Vectors                                0.2           2           0
 PW_GRID|   G-Rays                                   0.1           1           0
 PW_GRID|   Real Space Points                        0.2           2           0

 PW_GRID| Information for grid number                                         14
 PW_GRID| Number of the reference grid                                         1
 PW_GRID| Grid distributed over                                    40 processors
 PW_GRID| Real space group dimensions                                     5    8
 PW_GRID| the grid is blocked:                                                NO
 PW_GRID| Cutoff [a.u.]                                                      0.0
 PW_GRID| spherical cutoff:                                                   NO
 PW_GRID|   Bounds   1             -1       0                Points:           2
 PW_GRID|   Bounds   2             -1       0                Points:           2
 PW_GRID|   Bounds   3             -1       0                Points:           2
 PW_GRID| Volume element (a.u.^3)   5517.         Volume (a.u.^3)     44134.1676
 PW_GRID| Grid span                                                    FULLSPACE
 PW_GRID|   Distribution                         Average         Max         Min
 PW_GRID|   G-Vectors                                0.2           2           0
 PW_GRID|   G-Rays                                   0.1           1           0
 PW_GRID|   Real Space Points                        0.2           2           0

 PW_GRID| Information for grid number                                         15
 PW_GRID| Number of the reference grid                                         1
 PW_GRID| Grid distributed over                                    40 processors
 PW_GRID| Real space group dimensions                                     5    8
 PW_GRID| the grid is blocked:                                                NO
 PW_GRID| Cutoff [a.u.]                                                      0.0
 PW_GRID| spherical cutoff:                                                   NO
 PW_GRID|   Bounds   1             -1       0                Points:           2
 PW_GRID|   Bounds   2             -1       0                Points:           2
 PW_GRID|   Bounds   3             -1       0                Points:           2
 PW_GRID| Volume element (a.u.^3)   5517.         Volume (a.u.^3)     44134.1676
 PW_GRID| Grid span                                                    FULLSPACE
 PW_GRID|   Distribution                         Average         Max         Min
 PW_GRID|   G-Vectors                                0.2           2           0
 PW_GRID|   G-Rays                                   0.1           1           0
 PW_GRID|   Real Space Points                        0.2           2           0

 PW_GRID| Information for grid number                                         16
 PW_GRID| Number of the reference grid                                         1
 PW_GRID| Grid distributed over                                    40 processors
 PW_GRID| Real space group dimensions                                     5    8
 PW_GRID| the grid is blocked:                                                NO
 PW_GRID| Cutoff [a.u.]                                                      0.0
 PW_GRID| spherical cutoff:                                                   NO
 PW_GRID|   Bounds   1             -1       0                Points:           2
 PW_GRID|   Bounds   2             -1       0                Points:           2
 PW_GRID|   Bounds   3             -1       0                Points:           2
 PW_GRID| Volume element (a.u.^3)   5517.         Volume (a.u.^3)     44134.1676
 PW_GRID| Grid span                                                    FULLSPACE
 PW_GRID|   Distribution                         Average         Max         Min
 PW_GRID|   G-Vectors                                0.2           2           0
 PW_GRID|   G-Rays                                   0.1           1           0
 PW_GRID|   Real Space Points                        0.2           2           0

 POISSON| Solver                                                        PERIODIC
 POISSON| Periodicity                                                        XYZ

 RS_GRID| Information for grid number                                          1
 RS_GRID|   Bounds   1           -108     107                Points:         216
 RS_GRID|   Bounds   2           -108     107                Points:         216
 RS_GRID|   Bounds   3           -202     202                Points:         405
 RS_GRID| Real space distribution over                                  5 groups
 RS_GRID| Real space distribution along direction                              2
 RS_GRID| Border size                                                         53
 RS_GRID| Real space distribution over                                  8 groups
 RS_GRID| Real space distribution along direction                              3
 RS_GRID| Border size                                                         53
 RS_GRID|   Distribution                         Average         Max         Min
 RS_GRID|   Planes                                 149.2         150         149
 RS_GRID|   Distribution                         Average         Max         Min
 RS_GRID|   Planes                                 156.6         157         156

 RS_GRID| Information for grid number                                          2
 RS_GRID|   Bounds   1            -62      62                Points:         125
 RS_GRID|   Bounds   2            -62      62                Points:         125
 RS_GRID|   Bounds   3           -120     119                Points:         240
 RS_GRID| Real space distribution over                                  5 groups
 RS_GRID| Real space distribution along direction                              2
 RS_GRID| Border size                                                         41
 RS_GRID| Real space distribution over                                  8 groups
 RS_GRID| Real space distribution along direction                              3
 RS_GRID| Border size                                                         41
 RS_GRID|   Distribution                         Average         Max         Min
 RS_GRID|   Planes                                 107.0         107         107
 RS_GRID|   Distribution                         Average         Max         Min
 RS_GRID|   Planes                                 112.0         112         112

 RS_GRID| Information for grid number                                          3
 RS_GRID|   Bounds   1            -36      35                Points:          72
 RS_GRID|   Bounds   2            -36      35                Points:          72
 RS_GRID|   Bounds   3            -67      67                Points:         135
 RS_GRID| Real space fully replicated
 RS_GRID| Group size                                                           1

 RS_GRID| Information for grid number                                          4
 RS_GRID|   Bounds   1            -22      22                Points:          45
 RS_GRID|   Bounds   2            -22      22                Points:          45
 RS_GRID|   Bounds   3            -40      39                Points:          80
 RS_GRID| Real space fully replicated
 RS_GRID| Group size                                                           1

 RS_GRID| Information for grid number                                          5
 RS_GRID|   Bounds   1            -12      11                Points:          24
 RS_GRID|   Bounds   2            -12      11                Points:          24
 RS_GRID|   Bounds   3            -22      22                Points:          45
 RS_GRID| Real space fully replicated
 RS_GRID| Group size                                                           1

 RS_GRID| Information for grid number                                          6
 RS_GRID|   Bounds   1             -7       7                Points:          15
 RS_GRID|   Bounds   2             -7       7                Points:          15
 RS_GRID|   Bounds   3            -12      12                Points:          25
 RS_GRID| Real space fully replicated
 RS_GRID| Group size                                                           1

 RS_GRID| Information for grid number                                          7
 RS_GRID|   Bounds   1             -4       3                Points:           8
 RS_GRID|   Bounds   2             -4       3                Points:           8
 RS_GRID|   Bounds   3             -7       7                Points:          15
 RS_GRID| Real space fully replicated
 RS_GRID| Group size                                                           1

 RS_GRID| Information for grid number                                          8
 RS_GRID|   Bounds   1             -3       2                Points:           6
 RS_GRID|   Bounds   2             -3       2                Points:           6
 RS_GRID|   Bounds   3             -4       4                Points:           9
 RS_GRID| Real space fully replicated
 RS_GRID| Group size                                                           1

 RS_GRID| Information for grid number                                          9
 RS_GRID|   Bounds   1             -2       1                Points:           4
 RS_GRID|   Bounds   2             -2       1                Points:           4
 RS_GRID|   Bounds   3             -3       2                Points:           6
 RS_GRID| Real space fully replicated
 RS_GRID| Group size                                                           1

 RS_GRID| Information for grid number                                         10
 RS_GRID|   Bounds   1             -1       0                Points:           2
 RS_GRID|   Bounds   2             -1       0                Points:           2
 RS_GRID|   Bounds   3             -2       1                Points:           4
 RS_GRID| Real space fully replicated
 RS_GRID| Group size                                                           1

 RS_GRID| Information for grid number                                         11
 RS_GRID|   Bounds   1             -1       0                Points:           2
 RS_GRID|   Bounds   2             -1       0                Points:           2
 RS_GRID|   Bounds   3             -1       0                Points:           2
 RS_GRID| Real space fully replicated
 RS_GRID| Group size                                                           1

 RS_GRID| Information for grid number                                         12
 RS_GRID|   Bounds   1             -1       0                Points:           2
 RS_GRID|   Bounds   2             -1       0                Points:           2
 RS_GRID|   Bounds   3             -1       0                Points:           2
 RS_GRID| Real space fully replicated
 RS_GRID| Group size                                                           1

 RS_GRID| Information for grid number                                         13
 RS_GRID|   Bounds   1             -1       0                Points:           2
 RS_GRID|   Bounds   2             -1       0                Points:           2
 RS_GRID|   Bounds   3             -1       0                Points:           2
 RS_GRID| Real space fully replicated
 RS_GRID| Group size                                                           1

 RS_GRID| Information for grid number                                         14
 RS_GRID|   Bounds   1             -1       0                Points:           2
 RS_GRID|   Bounds   2             -1       0                Points:           2
 RS_GRID|   Bounds   3             -1       0                Points:           2
 RS_GRID| Real space fully replicated
 RS_GRID| Group size                                                           1

 RS_GRID| Information for grid number                                         15
 RS_GRID|   Bounds   1             -1       0                Points:           2
 RS_GRID|   Bounds   2             -1       0                Points:           2
 RS_GRID|   Bounds   3             -1       0                Points:           2
 RS_GRID| Real space fully replicated
 RS_GRID| Group size                                                           1

 RS_GRID| Information for grid number                                         16
 RS_GRID|   Bounds   1             -1       0                Points:           2
 RS_GRID|   Bounds   2             -1       0                Points:           2
 RS_GRID|   Bounds   3             -1       0                Points:           2
 RS_GRID| Real space fully replicated
 RS_GRID| Group size                                                           1

 Number of electrons:                                                        320
 Number of occupied orbitals:                                                160
 Number of molecular orbitals:                                               210

 Number of orbital functions:                                               1152
 Number of independent orbital functions:                                   1152

 Extrapolation method: initial_guess

 *** WARNING in qs_initial_guess.F:280 :: User requested to restart the    ***
 *** wavefunction from the file named: Diag_libra-2001-RESTART.wfn. This   ***
 *** file does not exist. Please check the existence of the file or change ***
 *** properly the value of the keyword WFN_RESTART_FILE_NAME. Calculation  ***
 *** continues using ATOMIC GUESS.                                         ***


 Atomic guess: The first density matrix is obtained in terms of atomic orbitals
               and electronic configurations assigned to each atomic kind

 Guess for atomic kind: Si

 Electronic structure
    Total number of core electrons                                         10.00
    Total number of valence electrons                                       4.00
    Total number of electrons                                              14.00
    Multiplicity                                                   not specified
    S   [  2.00  2.00] 2.00
    P   [  6.00] 2.00
 

 *******************************************************************************
                  Iteration          Convergence                     Energy [au]
 *******************************************************************************
                          1        0.526541E-01                  -3.659692963728
                          2        0.125823E-01                  -3.661785675622
                          3        0.408986E-04                  -3.661911567360
                          4        0.675570E-07                  -3.661911568709

 Energy components [Hartree]           Total Energy ::           -3.661911568709
                                        Band Energy ::           -0.941881516273
                                     Kinetic Energy ::            1.409736465412
                                   Potential Energy ::           -5.071648034121
                                      Virial (-V/T) ::            3.597585902439
                                        Core Energy ::           -5.690149137281
                                          XC Energy ::           -0.992569238249
                                     Coulomb Energy ::            3.020806806821
                       Total Pseudopotential Energy ::           -7.143143335066
                       Local Pseudopotential Energy ::           -8.006124475851
                    Nonlocal Pseudopotential Energy ::            0.862981140786
                                        Confinement ::            0.432577323720

 Orbital energies  State     L     Occupation   Energy[a.u.]          Energy[eV]

                       1     0          2.000      -0.357276           -9.721984
 
                       1     1          2.000      -0.113664           -3.092965
 

 Total Electron Density at R=0:                                         0.000026

 Guess for atomic kind: H

 Electronic structure
    Total number of core electrons                                          0.00
    Total number of valence electrons                                       1.00
    Total number of electrons                                               1.00
    Multiplicity                                                   not specified
    S      1.00
 

 *******************************************************************************
                  Iteration          Convergence                     Energy [au]
 *******************************************************************************
                          1        0.250972E-02                  -0.375256815885
                          2        0.570752E-04                  -0.375258666164
                          3        0.832405E-09                  -0.375258667122

 Energy components [Hartree]           Total Energy ::           -0.375258667122
                                        Band Energy ::           -0.076317618391
                                     Kinetic Energy ::            0.771356566341
                                   Potential Energy ::           -1.146615233463
                                      Virial (-V/T) ::            1.486491829455
                                        Core Energy ::           -0.456090715790
                                          XC Energy ::           -0.314218627334
                                     Coulomb Energy ::            0.395050676003
                       Total Pseudopotential Energy ::           -1.238482237174
                       Local Pseudopotential Energy ::           -1.238482237174
                    Nonlocal Pseudopotential Energy ::            0.000000000000
                                        Confinement ::            0.110349550431

 Orbital energies  State     L     Occupation   Energy[a.u.]          Energy[eV]

                       1     0          1.000      -0.076318           -2.076708
 

 Total Electron Density at R=0:                                         0.425022

 Guess for atomic kind: Ge

 Electronic structure
    Total number of core electrons                                         28.00
    Total number of valence electrons                                       4.00
    Total number of electrons                                              32.00
    Multiplicity                                                   not specified
    S   [  2.00  2.00  2.00] 2.00
    P   [  6.00  6.00] 2.00
    D   [ 10.00]
 

 *******************************************************************************
                  Iteration          Convergence                     Energy [au]
 *******************************************************************************
[...]
 TDDFPT|     11       1.31434   3.8143E-01 -1.8839E-01  3.6998E-02   5.87173E-03
 TDDFPT|     12       1.32545  -1.5419E+01 -4.3447E-01 -2.1191E-02   7.72678E+00
 TDDFPT|     13       1.42088   7.2111E-03  7.6386E-02 -3.3133E-02   2.43140E-04
 TDDFPT|     14       1.45488  -8.2907E-01 -1.4455E-01 -1.3881E-02   2.52515E-02
 TDDFPT|     15       1.46933   2.1700E-01 -9.1543E-01 -7.2498E-03   3.18634E-02
 TDDFPT|     16       1.48745  -1.5505E-01  3.6274E-03  2.5158E-03   8.76762E-04
 TDDFPT|     17       1.51543  -7.3834E-02  5.6684E-01  8.6175E-03   1.21346E-02
 TDDFPT|     18       1.55226   5.3548E-01 -2.6503E+00 -2.1870E-03   2.78029E-01
 TDDFPT|     19       1.59428   2.7636E-01 -2.7553E-02  9.6636E-03   3.01638E-03
 TDDFPT|     20       1.62316  -3.6177E-01 -2.5684E-01  1.0668E-02   7.83238E-03

 Excitation analysis

   State        Occupied         Virtual        Excitation
   number        orbital         orbital        amplitude
 ---------------------------------------------------------
        1
                  160             161             0.999826
        2
                  160             162             0.999942
        3
                  160             163             0.999673
        4
                  159             161            -0.999817
        5
                  160             164            -0.998951
        6
                  159             162            -0.999933
        7
                  160             165            -0.998272
        8
                  159             163            -0.999723
        9
                  159             164            -0.999012
       10
                  160             166            -0.999905
       11
                  160             167             0.999607
       12
                  159             165            -0.997946
       13
                  160             168             0.999855
       14
                  159             166            -0.999861
       15
                  160             169             0.995961
                  160             171             0.076095
       16
                  159             167            -0.999854
       17
                  160             170            -0.969185
                  160             171            -0.245472
       18
                  160             171            -0.957864
                  160             170             0.240119
                  160             174            -0.084703
                  160             172            -0.079090
                  160             169             0.078926
       19
                  159             168            -0.999824
       20
                  160             172            -0.897517
                  160             173             0.403756
                  160             174             0.148725
                  160             171             0.063325

 -------------------------------------------------------------------------------
 ----                             MULTIGRID INFO                            ----
 -------------------------------------------------------------------------------
 count for grid        1:        2293023          cutoff [a.u.]           50.00
 count for grid        2:         695474          cutoff [a.u.]           16.67
 count for grid        3:         204735          cutoff [a.u.]            5.56
 count for grid        4:              0          cutoff [a.u.]            1.85
 count for grid        5:              0          cutoff [a.u.]            0.62
 count for grid        6:              0          cutoff [a.u.]            0.21
 count for grid        7:              0          cutoff [a.u.]            0.07
 count for grid        8:              0          cutoff [a.u.]            0.02
 count for grid        9:              0          cutoff [a.u.]            0.01
 count for grid       10:              0          cutoff [a.u.]            0.00
 count for grid       11:              0          cutoff [a.u.]            0.00
 count for grid       12:              0          cutoff [a.u.]            0.00
 count for grid       13:              0          cutoff [a.u.]            0.00
 count for grid       14:              0          cutoff [a.u.]            0.00
 count for grid       15:              0          cutoff [a.u.]            0.00
 count for grid       16:              0          cutoff [a.u.]            0.00
 count for grid       17:              0          cutoff [a.u.]            0.00
 count for grid       18:              0          cutoff [a.u.]            0.00
 count for grid       19:              0          cutoff [a.u.]            0.00
 count for grid       20:              0          cutoff [a.u.]            0.00
 count for grid       21:              0          cutoff [a.u.]            0.00
 count for grid       22:              0          cutoff [a.u.]            0.00
 count for grid       23:              0          cutoff [a.u.]            0.00
 count for grid       24:              0          cutoff [a.u.]            0.00
 count for grid       25:              0          cutoff [a.u.]            0.00
 total gridlevel count  :        3193232

 ENERGY| Total FORCE_EVAL ( QS ) energy (a.u.):             -288.488770025705662


 -------------------------------------------------------------------------------
 -                                                                             -
 -                                DBCSR STATISTICS                             -
 -                                                                             -
 -------------------------------------------------------------------------------
 COUNTER                                    TOTAL       BLAS       SMM       ACC
 flops     5 x     5 x    18             46800000       0.0%    100.0%      0.0%
 flops     5 x    13 x    18            119808000       0.0%    100.0%      0.0%
 flops    13 x     5 x    18            119808000       0.0%    100.0%      0.0%
 flops    13 x    13 x    18            316368000       0.0%    100.0%      0.0%
 flops     5 x     5 x    32            499200000       0.0%    100.0%      0.0%
 flops     5 x    13 x    32           1277952000       0.0%    100.0%      0.0%
 flops    13 x     5 x    32           1277952000       0.0%    100.0%      0.0%
 flops    13 x    13 x    32           3374592000       0.0%    100.0%      0.0%
 flops     5 x    32 x     5          18232115200       0.0%    100.0%      0.0%
 flops     5 x    32 x    13          47403499520       0.0%    100.0%      0.0%
 flops    13 x    32 x     5          47403499520       0.0%    100.0%      0.0%
 flops    13 x    32 x    13         123249098752       0.0%    100.0%      0.0%
 flops inhomo. stacks                           0       0.0%      0.0%      0.0%
 flops total                       243.320693E+09       0.0%    100.0%      0.0%
 flops max/rank                     12.179905E+09       0.0%    100.0%      0.0%
 matmuls inhomo. stacks                         0       0.0%      0.0%      0.0%
 matmuls total                           47025088       0.0%    100.0%      0.0%
 number of processed stacks                904800       0.0%    100.0%      0.0%
 average stack size                                     0.0      52.0       0.0
 marketing flops                   246.905029E+09
 -------------------------------------------------------------------------------
 # multiplications                            571
 max memory usage/rank             712.781824E+06
 # max total images/rank                        5
 # max 3D layers                                1
 # MPI messages exchanged                  753720
 MPI messages size (bytes):
  total size                        55.212032E+09
  min size                           0.000000E+00
  max size                         177.000000E+03
  average size                      73.252711E+03
 MPI breakdown and total messages size (bytes):
             size <=      128              184650                        0
       128 < size <=     8192                   0                        0
      8192 < size <=    32768              168450               2551633920
     32768 < size <=   131072              204060              24583219200
    131072 < size <=  4194304              196560              28078202880
   4194304 < size <= 16777216                   0                        0
  16777216 < size                               0                        0
 -------------------------------------------------------------------------------

 *** WARNING in dbcsr_mm.F:295 :: Using a non-square number of MPI ranks ***
 *** might lead to poor performance. Used ranks: 40 Suggested: 36 81     ***

 -------------------------------------------------------------------------------
 -                                                                             -
 -                      DBCSR MESSAGE PASSING PERFORMANCE                      -
 -                                                                             -
 -------------------------------------------------------------------------------
 ROUTINE             CALLS      AVE VOLUME [Bytes]
 MP_Group              577
 MP_Bcast               13                     12.
 MP_Allreduce         1857                      8.
 MP_Alltoall         14181                  33760.
 MP_Wait             41112
 MP_ISend            43346                  36336.
 MP_IRecv            45580                  34066.
 MP_Memory           71470
 -------------------------------------------------------------------------------
 
 MEMORY| Estimated peak process memory [MiB]                                 680

 -------------------------------------------------------------------------------
 ----                             MULTIGRID INFO                            ----
 -------------------------------------------------------------------------------
 count for grid        1:         596010          cutoff [a.u.]          250.00
 count for grid        2:         693759          cutoff [a.u.]           83.33
 count for grid        3:         493080          cutoff [a.u.]           27.78
 count for grid        4:         293263          cutoff [a.u.]            9.26
 count for grid        5:           8320          cutoff [a.u.]            3.09
 count for grid        6:              0          cutoff [a.u.]            1.03
 count for grid        7:              0          cutoff [a.u.]            0.34
 count for grid        8:              0          cutoff [a.u.]            0.11
 count for grid        9:              0          cutoff [a.u.]            0.04
 count for grid       10:              0          cutoff [a.u.]            0.01
 count for grid       11:              0          cutoff [a.u.]            0.00
 count for grid       12:              0          cutoff [a.u.]            0.00
 count for grid       13:              0          cutoff [a.u.]            0.00
 count for grid       14:              0          cutoff [a.u.]            0.00
 count for grid       15:              0          cutoff [a.u.]            0.00
 count for grid       16:              0          cutoff [a.u.]            0.00
 total gridlevel count  :        2084432

 -------------------------------------------------------------------------------
 -                                                                             -
 -                         MESSAGE PASSING PERFORMANCE                         -
 -                                                                             -
 -------------------------------------------------------------------------------

 ROUTINE             CALLS      AVE VOLUME [Bytes]
 MP_Group               41
 MP_Bcast              159                3532102.
 MP_Allreduce        16145                    390.
 MP_Sync             12335
 MP_Alltoall         18083                1278371.
 MP_ISendRecv       290862                   6107.
 MP_Wait            329352
 MP_comm_split          34
 MP_ISend            35479                 128036.
 MP_IRecv            36353                 124969.
 MP_Recv               198                 151645.
 -------------------------------------------------------------------------------


 -------------------------------------------------------------------------------
 -                                                                             -
 -                           R E F E R E N C E S                               -
 -                                                                             -
 -------------------------------------------------------------------------------
 
 CP2K version 7.1, the CP2K developers group (2019).
 CP2K is freely available from https://www.cp2k.org/ .

 Schuett, Ole; Messmer, Peter; Hutter, Juerg; VandeVondele, Joost. 
 Electronic Structure Calculations on Graphics Processing Units, John
 Wiley & Sons, Ltd, 173-190 (2016). 
 GPU-Accelerated Sparse Matrix-Matrix Multiplication for
 Linear Scaling Density Functional Theory.
 https://dx.doi.org/10.1002/9781118670712.ch8

 Borstnik, U; VandeVondele, J; Weber, V; Hutter, J. 
 PARALLEL COMPUTING, 40 (5-6), 47-58 (2014). 
 Sparse matrix multiplication: The distributed block-compressed sparse
 row library.
 https://dx.doi.org/10.1016/j.parco.2014.03.012

 Hutter, J; Iannuzzi, M; Schiffmann, F; VandeVondele, J. 
 WIREs Comput Mol Sci., 4 (1), 15-25 (2014). 
 CP2K: atomistic simulations of condensed matter systems.
 https://dx.doi.org/10.1002/wcms.1159

 Grimme, S; Ehrlich, S; Goerigk, L. 
 JOURNAL OF COMPUTATIONAL CHEMISTRY, 32, 1456 (2011). 
 Effect of the damping function in dispersion corrected density functional theory.
 https://dx.doi.org/10.1002/jcc.21759

 Grimme, S; Antony, J; Ehrlich, S; Krieg, H. 
 JOURNAL OF CHEMICAL PHYSICS, 132 (15), 154104 (2010). 
 A consistent and accurate ab initio parametrization of density
 functional dispersion correction (DFT-D) for the 94 elements H-Pu.
 https://dx.doi.org/10.1063/1.3382344

 VandeVondele, J; Hutter, J. 
 JOURNAL OF CHEMICAL PHYSICS, 127 (11), 114105 (2007). 
 Gaussian basis sets for accurate calculations on molecular systems in
 gas and condensed phases.
 https://dx.doi.org/10.1063/1.2770708

 Krack, M. 
 THEORETICAL CHEMISTRY ACCOUNTS, 114 (1-3), 145-152 (2005). 
 Pseudopotentials for H to Kr optimized for gradient-corrected
 exchange-correlation functionals.
 https://dx.doi.org/10.1007/s00214-005-0655-y

 VandeVondele, J; Krack, M; Mohamed, F; Parrinello, M; Chassaing, T;
 Hutter, J. COMPUTER PHYSICS COMMUNICATIONS, 167 (2), 103-128 (2005). 
 QUICKSTEP: Fast and accurate density functional calculations using a
 mixed Gaussian and plane waves approach.
 https://dx.doi.org/10.1016/j.cpc.2004.12.014

 Frigo, M; Johnson, SG. 
 PROCEEDINGS OF THE IEEE, 93 (2), 216-231 (2005). 
 The design and implementation of FFTW3.
 https://dx.doi.org/10.1109/JPROC.2004.840301

 Iannuzzi, M; Chassaing, T; Wallman, T; Hutter, J. 
 CHIMIA, 59 (7-8), 499-503 (2005). 
 Ground and excited state density functional calculations with the
 Gaussian and augmented-plane-wave method.
 https://dx.doi.org/10.2533/000942905777676164

 Hartwigsen, C; Goedecker, S; Hutter, J. 
 PHYSICAL REVIEW B, 58 (7), 3641-3662 (1998). 
 Relativistic separable dual-space Gaussian pseudopotentials from H to Rn.
 https://dx.doi.org/10.1103/PhysRevB.58.3641

 Lippert, G; Hutter, J; Parrinello, M. 
 MOLECULAR PHYSICS, 92 (3), 477-487 (1997). 
 A hybrid Gaussian and plane wave density functional scheme.
 https://dx.doi.org/10.1080/002689797170220

 Perdew, JP; Burke, K; Ernzerhof, M. 
 PHYSICAL REVIEW LETTERS, 77 (18), 3865-3868 (1996). 
 Generalized gradient approximation made simple.
 https://dx.doi.org/10.1103/PhysRevLett.77.3865

 Goedecker, S; Teter, M; Hutter, J. 
 PHYSICAL REVIEW B, 54 (3), 1703-1710 (1996). 
 Separable dual-space Gaussian pseudopotentials.
 https://dx.doi.org/10.1103/PhysRevB.54.1703


 -------------------------------------------------------------------------------
 -                                                                             -
 -                                T I M I N G                                  -
 -                                                                             -
 -------------------------------------------------------------------------------
 SUBROUTINE                       CALLS  ASD         SELF TIME        TOTAL TIME
                                MAXIMUM       AVERAGE  MAXIMUM  AVERAGE  MAXIMUM
 CP2K                                 1  1.0    0.041    0.055  363.716  363.717
 qs_energies                          1  2.0    0.000    0.002  363.221  363.222
 qs_energies_properties               1  3.0    0.000    0.000  276.274  276.277
 tddfpt                               1  4.0    0.001    0.002  276.274  276.277
 tddfpt_davidson_solver               2  5.0    0.001    0.003  274.567  274.569
 tddfpt_compute_Aop_evects            7  6.0    0.010    0.030  271.064  271.066
 qs_rho_update_rho                  167  6.7    0.001    0.002  164.417  164.422
 calculate_rho_elec                 167  7.7   68.447  141.878  164.416  164.420
 integrate_v_rspace                 165  7.3   61.881  130.752  149.871  149.990
 rs_pw_transfer                    7842  9.5    0.021    0.024   96.765  118.218
 density_rs2pw                      167  8.7    0.023    0.025   93.254  114.824
 mp_waitany                       21804 11.5   82.030  103.393   82.030  103.393
 rs_pw_transfer_RS2PW_50            141 11.0    0.777    0.866   75.329   95.787
 mp_alltoall_d11v                  6415 10.3   73.189   91.970   73.189   91.970
 rs_distribute_matrix               332  8.5    0.193    0.509   73.022   91.647
 scf_env_do_scf                       1  3.0    0.000    0.002   83.800   83.801
 scf_env_do_scf_inner_loop           25  4.0    0.002    0.004   83.799   83.801
 qs_ks_update_qs_env                 25  5.0    0.000    0.000   45.061   45.073
 rebuild_ks_matrix                   25  6.0    0.000    0.000   45.049   45.062
 qs_ks_build_kohn_sham_matrix        25  7.0    0.007    0.018   45.049   45.062
 pw_transfer                       9967  9.4    0.566    0.598   34.189   34.584
 fft_wrap_pw1pw2                   9637 10.4    0.035    0.041   33.320   33.691
 fft3d_ps                          9637 12.4   10.805   11.886   26.726   27.319
 sum_up_and_integrate                25  8.0    0.165    0.235   24.744   24.748
 fft_wrap_pw1pw2_250                302 11.5    1.706    1.996   21.813   22.120
 qs_vxc_create                       25  8.0    0.001    0.002   17.415   17.503
 xc_vxc_pw_create                    25  9.0    0.196    0.269   17.414   17.502
 potential_pw2rs                    165  8.3    0.043    0.047   15.810   15.936
 mp_alltoall_z22v                  9637 14.4   10.497   12.047   10.497   12.047
 xc_rho_set_and_dset_create          26  9.9    0.098    0.116    8.860    9.272
 rs_pw_transfer_RS2PW_250            27  8.9    2.688    2.902    6.573    7.639
 yz_to_x                           1048 13.3    1.011    1.080    6.425    7.565
 fft_wrap_pw1pw2_50                1826 10.8    0.559    0.624    7.448    7.497
 x_to_yz                           1514 12.9    2.108    2.474    7.068    7.358
 -------------------------------------------------------------------------------

 The number of warnings for this run is : 2
 
 -------------------------------------------------------------------------------
  **** **** ******  **  PROGRAM ENDED AT                 2024-10-12 09:48:04.275
 ***** ** ***  *** **   PROGRAM RAN ON                      nia0271.scinet.local
 **    ****   ******    PROGRAM RAN BY                                  ekadashi
 ***** **    ** ** **   PROGRAM PROCESS ID                                117288
  **** **  *******  **  PROGRAM STOPPED IN /gpfs/fs0/scratch/t/tzeng/ekadashi/Li
                                           bra_CP2K/SiGe_Hetero/step2/job1
