 DBCSR| CPU Multiplication driver                                           XSMM
 DBCSR| Multrec recursion limit                                              512
 DBCSR| Multiplication stack size                                           1000
 DBCSR| Maximum elements for images                                    UNLIMITED
 DBCSR| Multiplicative factor virtual images                                   1
 DBCSR| Use multiplication densification                                       T
 DBCSR| Multiplication size stacks                                             3
 DBCSR| Number of 3D layers                                               SINGLE
 DBCSR| Use MPI memory allocation                                              T
 DBCSR| Use RMA algorithm                                                      F
 DBCSR| Use Communication thread                                               T
 DBCSR| Communication thread load                                             87


  **** **** ******  **  PROGRAM STARTED AT               2024-10-12 10:01:48.027
 ***** ** ***  *** **   PROGRAM STARTED ON                  nia0272.scinet.local
 **    ****   ******    PROGRAM STARTED BY                              ekadashi
 ***** **    ** ** **   PROGRAM PROCESS ID                                 59361
  **** **  *******  **  PROGRAM STARTED IN /gpfs/fs0/scratch/t/tzeng/ekadashi/Li
                                           bra_CP2K/SiGe_Hetero/step2/job2

 CP2K| version string:                                          CP2K version 7.1
 CP2K| source code revision number:                                  git:e635599
 CP2K| cp2kflags: libint fftw3 libxc parallel mpi3 scalapack xsmm plumed2       
 CP2K| is freely available from                            https://www.cp2k.org/
 CP2K| Program compiled at                       Tue 15 Sep 2020 05:43:08 PM -00
 CP2K| Program compiled on                          build-node2.computecanada.ca
 CP2K| Program compiled for                                   Linux-x86-64-iomkl
 CP2K| Data directory path    /cvmfs/soft.computecanada.ca/easybuild/software/20
 CP2K| Input file name                                       Diag_libra-2010.inp
 
 GLOBAL| Force Environment number                                              1
 GLOBAL| Basis set file name                                        BASIS_MOLOPT
 GLOBAL| Potential file name                                           POTENTIAL
 GLOBAL| MM Potential file name                                     MM_POTENTIAL
 GLOBAL| Coordinate file name                                     coord-2010.xyz
 GLOBAL| Method name                                                        CP2K
 GLOBAL| Project name                                            Diag_libra-2010
 GLOBAL| Preferred FFT library                                             FFTW3
 GLOBAL| Preferred diagonalization lib.                                       SL
 GLOBAL| Run type                                                         ENERGY
 GLOBAL| All-to-all communication in single precision                          F
 GLOBAL| FFTs using library dependent lengths                                  F
 GLOBAL| Global print level                                               MEDIUM
 GLOBAL| MPI I/O enabled                                                       T
 GLOBAL| Total number of message passing processes                            40
 GLOBAL| Number of threads for this process                                    1
 GLOBAL| This output is from process                                           0
 GLOBAL| CPU model name                 Intel(R) Xeon(R) Gold 6148 CPU @ 2.40GHz
 GLOBAL| CPUID                                                              1003
 GLOBAL| Compiled for CPUID                                                 1002

 MEMORY| system memory details [Kb]
 MEMORY|                        rank 0           min           max       average
 MEMORY| MemTotal            197718156     197718156     197718156     197718156
 MEMORY| MemFree              33163352      33163352      33163972      33163863
 MEMORY| Buffers                     0             0             0             0
 MEMORY| Cached              142987560     142987560     142987560     142987560
 MEMORY| Slab                  2159316       2159316       2159316       2159316
 MEMORY| SReclaimable          1696648       1696648       1696648       1696648
 MEMORY| MemLikelyFree       177847560     177847560     177848180     177848071


 *** Fundamental physical constants (SI units) ***

 *** Literature: B. J. Mohr and B. N. Taylor,
 ***             CODATA recommended values of the fundamental physical
 ***             constants: 2006, Web Version 5.1
 ***             http://physics.nist.gov/constants

 Speed of light in vacuum [m/s]                             2.99792458000000E+08
 Magnetic constant or permeability of vacuum [N/A**2]       1.25663706143592E-06
 Electric constant or permittivity of vacuum [F/m]          8.85418781762039E-12
 Planck constant (h) [J*s]                                  6.62606896000000E-34
 Planck constant (h-bar) [J*s]                              1.05457162825177E-34
 Elementary charge [C]                                      1.60217648700000E-19
 Electron mass [kg]                                         9.10938215000000E-31
 Electron g factor [ ]                                     -2.00231930436220E+00
 Proton mass [kg]                                           1.67262163700000E-27
 Fine-structure constant                                    7.29735253760000E-03
 Rydberg constant [1/m]                                     1.09737315685270E+07
 Avogadro constant [1/mol]                                  6.02214179000000E+23
 Boltzmann constant [J/K]                                   1.38065040000000E-23
 Atomic mass unit [kg]                                      1.66053878200000E-27
 Bohr radius [m]                                            5.29177208590000E-11

 *** Conversion factors ***

 [u] -> [a.u.]                                              1.82288848426455E+03
 [Angstrom] -> [Bohr] = [a.u.]                              1.88972613288564E+00
 [a.u.] = [Bohr] -> [Angstrom]                              5.29177208590000E-01
 [a.u.] -> [s]                                              2.41888432650478E-17
 [a.u.] -> [fs]                                             2.41888432650478E-02
 [a.u.] -> [J]                                              4.35974393937059E-18
 [a.u.] -> [N]                                              8.23872205491840E-08
 [a.u.] -> [K]                                              3.15774647902944E+05
 [a.u.] -> [kJ/mol]                                         2.62549961709828E+03
 [a.u.] -> [kcal/mol]                                       6.27509468713739E+02
 [a.u.] -> [Pa]                                             2.94210107994716E+13
 [a.u.] -> [bar]                                            2.94210107994716E+08
 [a.u.] -> [atm]                                            2.90362800883016E+08
 [a.u.] -> [eV]                                             2.72113838565563E+01
 [a.u.] -> [Hz]                                             6.57968392072181E+15
 [a.u.] -> [1/cm] (wave numbers)                            2.19474631370540E+05
 [a.u./Bohr**2] -> [1/cm]                                   5.14048714338585E+03
 

 CELL_TOP| Volume [angstrom^3]:                                         6540.009
 CELL_TOP| Vector a [angstrom    15.928     0.000     0.000    |a| =      15.928
 CELL_TOP| Vector b [angstrom    -7.965    13.786     0.000    |b| =      15.922
 CELL_TOP| Vector c [angstrom    -0.000     0.000    29.784    |c| =      29.784
 CELL_TOP| Angle (b,c), alpha [degree]:                                   90.000
 CELL_TOP| Angle (a,c), beta  [degree]:                                   90.000
 CELL_TOP| Angle (a,b), gamma [degree]:                                  120.015
 CELL_TOP| Numerically orthorhombic:                                          NO
 
 GENERATE|  Preliminary Number of Bonds generated:                             0
 GENERATE|  Achieved consistency in connectivity generation.

 CELL| Volume [angstrom^3]:                                             6540.009
 CELL| Vector a [angstrom]:      15.928     0.000     0.000    |a| =      15.928
 CELL| Vector b [angstrom]:      -7.965    13.786     0.000    |b| =      15.922
 CELL| Vector c [angstrom]:      -0.000     0.000    29.784    |c| =      29.784
 CELL| Angle (b,c), alpha [degree]:                                       90.000
 CELL| Angle (a,c), beta  [degree]:                                       90.000
 CELL| Angle (a,b), gamma [degree]:                                      120.015
 CELL| Numerically orthorhombic:                                              NO

 CELL_REF| Volume [angstrom^3]:                                         6540.009
 CELL_REF| Vector a [angstrom    15.928     0.000     0.000    |a| =      15.928
 CELL_REF| Vector b [angstrom    -7.965    13.786     0.000    |b| =      15.922
 CELL_REF| Vector c [angstrom    -0.000     0.000    29.784    |c| =      29.784
 CELL_REF| Angle (b,c), alpha [degree]:                                   90.000
 CELL_REF| Angle (a,c), beta  [degree]:                                   90.000
 CELL_REF| Angle (a,b), gamma [degree]:                                  120.015
 CELL_REF| Numerically orthorhombic:                                          NO

 *******************************************************************************
 *******************************************************************************
 **                                                                           **
 **     #####                         ##              ##                      **
 **    ##   ##            ##          ##              ##                      **
 **   ##     ##                       ##            ######                    **
 **   ##     ##  ##   ##  ##   #####  ##  ##   ####   ##    #####    #####    **
 **   ##     ##  ##   ##  ##  ##      ## ##   ##      ##   ##   ##  ##   ##   **
 **   ##  ## ##  ##   ##  ##  ##      ####     ###    ##   ######   ######    **
 **    ##  ###   ##   ##  ##  ##      ## ##      ##   ##   ##       ##        **
 **     #######   #####   ##   #####  ##  ##  ####    ##    #####   ##        **
 **           ##                                                    ##        **
 **                                                                           **
 **                                                ... make the atoms dance   **
 **                                                                           **
 **            Copyright (C) by CP2K developers group (2000 - 2019)           **
 **                                                                           **
 *******************************************************************************

 DFT| Spin restricted Kohn-Sham (RKS) calculation                            RKS
 DFT| Multiplicity                                                             1
 DFT| Number of spin states                                                    1
 DFT| Charge                                                                   0
 DFT| Self-interaction correction (SIC)                                       NO
 DFT| Cutoffs: density                                              1.000000E-10
 DFT|          gradient                                             1.000000E-10
 DFT|          tau                                                  1.000000E-10
 DFT|          cutoff_smoothing_range                               0.000000E+00
 DFT| XC density smoothing                                                  NONE
 DFT| XC derivatives                                                          PW
 FUNCTIONAL| ROUTINE=NEW
 FUNCTIONAL| PBE:
 FUNCTIONAL| J.P.Perdew, K.Burke, M.Ernzerhof, Phys. Rev. Letter, vol. 77, n 18,
 FUNCTIONAL|  pp. 3865-3868, (1996){spin unpolarized}                           
 vdW POTENTIAL|                                                   Pair Potential
 vdW POTENTIAL|          DFT-D3 (Version 3.1)
 vdW POTENTIAL|          Potential Form: S. Grimme et al, JCP 132: 154104 (2010)
 vdW POTENTIAL|          Zero Damping
 vdW POTENTIAL|          Cutoff Radius [Bohr]:                             30.24
 vdW POTENTIAL|          s6 Scaling Factor:                               1.0000
 vdW POTENTIAL|          sr6 Scaling Factor:                              1.2170
 vdW POTENTIAL|          s8 Scaling Factor:                               0.7220
 vdW POTENTIAL|          Cutoff for CN calculation:                   0.1000E-05

 QS| Method:                                                                 GPW
 QS| Density plane wave grid type                        NON-SPHERICAL FULLSPACE
 QS| Number of grid levels:                                                   16
 QS| Density cutoff [a.u.]:                                                250.0
 QS| Multi grid cutoff [a.u.]: 1) grid level                               250.0
 QS|                           2) grid level                                83.3
 QS|                           3) grid level                                27.8
 QS|                           4) grid level                                 9.3
 QS|                           5) grid level                                 3.1
 QS|                           6) grid level                                 1.0
 QS|                           7) grid level                                 0.3
 QS|                           8) grid level                                 0.1
 QS|                           9) grid level                                 0.0
 QS|                          10) grid level                                 0.0
 QS|                          11) grid level                                 0.0
 QS|                          12) grid level                                 0.0
 QS|                          13) grid level                                 0.0
 QS|                          14) grid level                                 0.0
 QS|                          15) grid level                                 0.0
 QS|                          16) grid level                                 0.0
 QS| Grid level progression factor:                                          3.0
 QS| Relative density cutoff [a.u.]:                                        25.0
 QS| Consistent realspace mapping and integration 
 QS| Interaction thresholds: eps_pgf_orb:                                1.0E-07
 QS|                         eps_filter_matrix:                          0.0E+00
 QS|                         eps_core_charge:                            1.0E-16
 QS|                         eps_rho_gspace:                             1.0E-14
 QS|                         eps_rho_rspace:                             1.0E-14
 QS|                         eps_gvg_rspace:                             1.0E-07
 QS|                         eps_ppl:                                    1.0E-02
 QS|                         eps_ppnl:                                   1.0E-09


 ATOMIC KIND INFORMATION

  1. Atomic kind: Si                                    Number of atoms:      32

     Orbital Basis Set                                     DZVP-MOLOPT-SR-GTH-q4

       Number of orbital shell sets:                                           1
       Number of orbital shells:                                               5
       Number of primitive Cartesian functions:                                4
       Number of Cartesian basis functions:                                   14
       Number of spherical basis functions:                                   13
       Norm type:                                                              2

       Normalised Cartesian orbitals:

                        Set   Shell   Orbital            Exponent    Coefficient

                          1       1    2s                1.256768       0.294045
                                                         0.506394      -0.015884
                                                         0.238884      -0.207657
                                                         0.087337      -0.036225

                          1       2    3s                1.256768      -1.532347
                                                         0.506394       0.524539
                                                         0.238884       0.025013
                                                         0.087337      -0.052203

                          1       3    3px               1.256768       0.152274
                                                         0.506394      -0.154145
                                                         0.238884      -0.115581
                                                         0.087337      -0.028372
                          1       3    3py               1.256768       0.152274
                                                         0.506394      -0.154145
                                                         0.238884      -0.115581
                                                         0.087337      -0.028372
                          1       3    3pz               1.256768       0.152274
                                                         0.506394      -0.154145
                                                         0.238884      -0.115581
                                                         0.087337      -0.028372

                          1       4    4px               1.256768       0.313378
                                                         0.506394      -0.415360
                                                         0.238884      -0.022539
                                                         0.087337       0.078473
                          1       4    4py               1.256768       0.313378
                                                         0.506394      -0.415360
                                                         0.238884      -0.022539
                                                         0.087337       0.078473
                          1       4    4pz               1.256768       0.313378
                                                         0.506394      -0.415360
                                                         0.238884      -0.022539
                                                         0.087337       0.078473

                          1       5    4dx2              1.256768       0.325879
                                                         0.506394       0.163831
                                                         0.238884       0.044076
                                                         0.087337       0.010608
                          1       5    4dxy              1.256768       0.564439
                                                         0.506394       0.283764
                                                         0.238884       0.076342
                                                         0.087337       0.018373
                          1       5    4dxz              1.256768       0.564439
                                                         0.506394       0.283764
                                                         0.238884       0.076342
                                                         0.087337       0.018373
                          1       5    4dy2              1.256768       0.325879
                                                         0.506394       0.163831
                                                         0.238884       0.044076
                                                         0.087337       0.010608
                          1       5    4dyz              1.256768       0.564439
                                                         0.506394       0.283764
                                                         0.238884       0.076342
                                                         0.087337       0.018373
                          1       5    4dz2              1.256768       0.325879
                                                         0.506394       0.163831
                                                         0.238884       0.044076
                                                         0.087337       0.010608

     GTH Potential information for                                       GTH-PBE

       Description:                       Goedecker-Teter-Hutter pseudopotential
                                           Goedecker et al., PRB 54, 1703 (1996)
                                          Hartwigsen et al., PRB 58, 3641 (1998)
                                                      Krack, TCA 114, 145 (2005)

       Gaussian exponent of the core charge distribution:               2.582645
       Electronic configuration (s p d ...):                               2   2

       Parameters of the local part of the GTH pseudopotential:

                          rloc        C1          C2          C3          C4
                        0.440000   -6.269288

       Parameters of the non-local part of the GTH pseudopotential:

                   l      r(l)      h(i,j,l)

                   0    0.435634    8.951742   -2.706271
                                   -2.706271    3.493781
                   1    0.497942    2.431277

  2. Atomic kind: H                                     Number of atoms:      64

     Orbital Basis Set                                     DZVP-MOLOPT-SR-GTH-q1

       Number of orbital shell sets:                                           1
       Number of orbital shells:                                               3
       Number of primitive Cartesian functions:                                5
       Number of Cartesian basis functions:                                    5
       Number of spherical basis functions:                                    5
       Norm type:                                                              2

       Normalised Cartesian orbitals:

                        Set   Shell   Orbital            Exponent    Coefficient

                          1       1    2s               10.068468      -0.133023
                                                         2.680223      -0.177618
                                                         0.791502      -0.258419
                                                         0.239116      -0.107525
                                                         0.082193      -0.014019

                          1       2    3s               10.068468       0.344673
                                                         2.680223       1.819821
                                                         0.791502      -0.999069
                                                         0.239116       0.017430
                                                         0.082193       0.082660

                          1       3    3px              10.068468       0.155326
                                                         2.680223       0.367157
                                                         0.791502       0.311480
                                                         0.239116       0.080105
                                                         0.082193       0.033440
                          1       3    3py              10.068468       0.155326
                                                         2.680223       0.367157
                                                         0.791502       0.311480
                                                         0.239116       0.080105
                                                         0.082193       0.033440
                          1       3    3pz              10.068468       0.155326
                                                         2.680223       0.367157
                                                         0.791502       0.311480
                                                         0.239116       0.080105
                                                         0.082193       0.033440

     GTH Potential information for                                       GTH-PBE

       Description:                       Goedecker-Teter-Hutter pseudopotential
                                           Goedecker et al., PRB 54, 1703 (1996)
                                          Hartwigsen et al., PRB 58, 3641 (1998)
                                                      Krack, TCA 114, 145 (2005)

       Gaussian exponent of the core charge distribution:              12.500000
       Electronic configuration (s p d ...):                                   1

       Parameters of the local part of the GTH pseudopotential:

                          rloc        C1          C2          C3          C4
                        0.200000   -4.178900    0.724463

  3. Atomic kind: Ge                                    Number of atoms:      32

     Orbital Basis Set                                     DZVP-MOLOPT-SR-GTH-q4

       Number of orbital shell sets:                                           1
       Number of orbital shells:                                               5
       Number of primitive Cartesian functions:                                4
       Number of Cartesian basis functions:                                   14
       Number of spherical basis functions:                                   13
       Norm type:                                                              2

       Normalised Cartesian orbitals:

                        Set   Shell   Orbital            Exponent    Coefficient

                          1       1    2s                3.751626      -0.120003
                                                         1.419172       0.428185
                                                         0.322428      -0.228255
                                                         0.110740      -0.068975

                          1       2    3s                3.751626       0.273885
                                                         1.419172      -0.836040
                                                         0.322428       0.584240
                                                         0.110740      -0.261045

                          1       3    3px               3.751626       0.064521
                                                         1.419172       0.216179
                                                         0.322428      -0.253385
                                                         0.110740      -0.035002
                          1       3    3py               3.751626       0.064521
                                                         1.419172       0.216179
                                                         0.322428      -0.253385
                                                         0.110740      -0.035002
                          1       3    3pz               3.751626       0.064521
                                                         1.419172       0.216179
                                                         0.322428      -0.253385
                                                         0.110740      -0.035002

                          1       4    4px               3.751626      -0.201632
                                                         1.419172      -0.391570
                                                         0.322428       0.486065
                                                         0.110740      -0.127990
                          1       4    4py               3.751626      -0.201632
                                                         1.419172      -0.391570
                                                         0.322428       0.486065
                                                         0.110740      -0.127990
                          1       4    4pz               3.751626      -0.201632
                                                         1.419172      -0.391570
                                                         0.322428       0.486065
                                                         0.110740      -0.127990

                          1       5    4dx2              3.751626      -0.158822
                                                         1.419172       0.193543
                                                         0.322428       0.178643
                                                         0.110740       0.009408
                          1       5    4dxy              3.751626      -0.275088
                                                         1.419172       0.335227
                                                         0.322428       0.309418
                                                         0.110740       0.016296
                          1       5    4dxz              3.751626      -0.275088
                                                         1.419172       0.335227
                                                         0.322428       0.309418
                                                         0.110740       0.016296
                          1       5    4dy2              3.751626      -0.158822
                                                         1.419172       0.193543
                                                         0.322428       0.178643
                                                         0.110740       0.009408
                          1       5    4dyz              3.751626      -0.275088
                                                         1.419172       0.335227
                                                         0.322428       0.309418
                                                         0.110740       0.016296
                          1       5    4dz2              3.751626      -0.158822
                                                         1.419172       0.193543
                                                         0.322428       0.178643
                                                         0.110740       0.009408

     GTH Potential information for                                       GTH-PBE

       Description:                       Goedecker-Teter-Hutter pseudopotential
                                           Goedecker et al., PRB 54, 1703 (1996)
                                          Hartwigsen et al., PRB 58, 3641 (1998)
                                                      Krack, TCA 114, 145 (2005)

       Gaussian exponent of the core charge distribution:               1.714678
       Electronic configuration (s p d ...):                               2   2

       Parameters of the local part of the GTH pseudopotential:

                          rloc        C1          C2          C3          C4
                        0.540000

       Parameters of the non-local part of the GTH pseudopotential:

                   l      r(l)      h(i,j,l)

                   0    0.421865    7.510241   -0.588108   -1.447976
                                   -0.588108   -1.595888    3.738657
                                   -1.447976    3.738657   -2.967467
                   1    0.567529    0.913860    0.546875
                                    0.546875   -0.647072
                   2    0.813914    0.197177


 MOLECULE KIND INFORMATION


 All atoms are their own molecule, skipping detailed information


 TOTAL NUMBERS AND MAXIMUM NUMBERS

  Total number of            - Atomic kinds:                                   3
                             - Atoms:                                        128
                             - Shell sets:                                   128
                             - Shells:                                       512
                             - Primitive Cartesian functions:                576
                             - Cartesian basis functions:                   1216
                             - Spherical basis functions:                   1152

  Maximum angular momentum of- Orbital basis functions:                        2
                             - Local part of the GTH pseudopotential:          2
                             - Non-local part of the GTH pseudopotential:      4


 MODULE QUICKSTEP:  ATOMIC COORDINATES IN angstrom

  Atom  Kind  Element       X           Y           Z          Z(eff)       Mass

       1     1 Si  14    0.279607    2.344261    1.838452      4.00      28.0855
       2     1 Si  14    2.211826    1.108809    2.351332      4.00      28.0855
       3     1 Si  14    4.070577    2.276568    1.548175      4.00      28.0855
       4     1 Si  14    6.011464    1.163505    2.347873      4.00      28.0855
       5     1 Si  14   -1.868524    5.684365    1.858673      4.00      28.0855
       6     1 Si  14    0.080776    4.520025    2.659253      4.00      28.0855
       7     1 Si  14    1.981638    5.816760    1.842674      4.00      28.0855
       8     1 Si  14    4.081572    4.607146    2.336194      4.00      28.0855
       9     2 H    1    0.454887    2.630089    0.346563      1.00       1.0079
      10     2 H    1    2.368103    0.940982    3.822465      1.00       1.0079
      11     2 H    1    1.795796    3.415537    5.389265      1.00       1.0079
      12     2 H    1    3.699075    2.346639    8.930019      1.00       1.0079
      13     2 H    1    4.088080    2.293841    0.012539      1.00       1.0079
      14     2 H    1    5.648819    0.770675    3.761672      1.00       1.0079
      15     2 H    1   -1.626797    3.470700    5.009692      1.00       1.0079
      16     2 H    1   -0.305675    2.850595    9.264632      1.00       1.0079
      17     2 H    1   -1.737559    5.452019    0.369366      1.00       1.0079
      18     2 H    1    0.188795    4.516609    4.128888      1.00       1.0079
      19     2 H    1    4.040163    0.017807    5.089242      1.00       1.0079
      20     2 H    1    1.757247    6.073721    9.097204      1.00       1.0079
      21     2 H    1    1.829683    5.872377    0.385679      1.00       1.0079
      22     2 H    1    4.269752    4.499456    3.786942      1.00       1.0079
      23     2 H    1    0.120332    0.254671    5.649820      1.00       1.0079
      24     2 H    1   -2.250301    6.041661    8.720936      1.00       1.0079
      25     3 Ge  32    1.857013    3.657227    6.846130      4.00      72.6400
      26     3 Ge  32    3.874382    2.388533    7.378385      4.00      72.6400
      27     3 Ge  32   -1.947597    3.423812    6.556260      4.00      72.6400
      28     3 Ge  32   -0.124999    2.609078    7.808102      4.00      72.6400
      29     3 Ge  32    3.966182    0.079922    6.657893      4.00      72.6400
      30     3 Ge  32    1.781594    5.959103    7.561679      4.00      72.6400
      31     3 Ge  32    0.043499    0.249342    7.163343      4.00      72.6400
      32     3 Ge  32   -2.201531    5.776093    7.237454      4.00      72.6400
      33     1 Si  14    8.070486    2.295445    1.775702      4.00      28.0855
      34     1 Si  14   10.080560    1.154757    2.295542      4.00      28.0855
      35     1 Si  14   12.178668    2.299300    1.810560      4.00      28.0855
      36     1 Si  14   14.225937    1.198695    2.440287      4.00      28.0855
      37     1 Si  14    6.142408    5.743632    1.641919      4.00      28.0855
      38     1 Si  14    8.154099    4.638847    2.451361      4.00      28.0855
      39     1 Si  14   10.047356    5.743618    1.631380      4.00      28.0855
      40     1 Si  14   11.973154    4.559518    2.314053      4.00      28.0855
      41     2 H    1    7.894313    2.613397    0.255598      1.00       1.0079
      42     2 H    1    9.933513    1.006458    3.823572      1.00       1.0079
      43     2 H    1    9.408741    3.146161    5.188735      1.00       1.0079
      44     2 H    1   12.102172    2.057292    8.724814      1.00       1.0079
      45     2 H    1   12.132728    2.231566    0.288822      1.00       1.0079
      46     2 H    1   14.172569    0.863241    3.899730      1.00       1.0079
      47     2 H    1    6.228202    3.388213    5.176415      1.00       1.0079
      48     2 H    1    7.941781    2.419532    9.155951      1.00       1.0079
      49     2 H    1    6.246413    5.874953    0.138317      1.00       1.0079
      50     2 H    1    8.011733    4.704291    3.920991      1.00       1.0079
      51     2 H    1   12.482508   -0.787230    5.330589      1.00       1.0079
      52     2 H    1   10.161249    5.861438    8.744499      1.00       1.0079
      53     2 H    1    9.864011    5.464405    0.199424      1.00       1.0079
      54     2 H    1   11.968499    4.553156    3.804826      1.00       1.0079
      55     2 H    1    7.975950    0.085790    5.086837      1.00       1.0079
      56     2 H    1    5.857621    6.054663    8.984732      1.00       1.0079
      57     3 Ge  32    9.967622    3.244465    6.620159      4.00      72.6400
      58     3 Ge  32   12.108719    2.108620    7.214956      4.00      72.6400
      59     3 Ge  32    6.076252    3.264694    6.737174      4.00      72.6400
      60     3 Ge  32    8.064491    2.241571    7.630905      4.00      72.6400
      61     3 Ge  32   12.221301   -0.349169    6.817244      4.00      72.6400
      62     3 Ge  32    9.759555    5.627043    7.282294      4.00      72.6400
      63     3 Ge  32    7.940909   -0.003766    6.689637      4.00      72.6400
      64     3 Ge  32    5.868482    5.674577    7.499314      4.00      72.6400
      65     1 Si  14   -3.829585    9.159429    1.501397      4.00      28.0855
      66     1 Si  14   -1.793511    8.084807    2.322336      4.00      28.0855
      67     1 Si  14    0.139777    9.213486    1.514069      4.00      28.0855
      68     1 Si  14    2.224165    8.244328    2.159964      4.00      28.0855
      69     1 Si  14   -5.856022   12.650598    1.420734      4.00      28.0855
      70     1 Si  14   -3.927312   11.453968    2.114414      4.00      28.0855
      71     1 Si  14   -1.793406   12.709689    1.523611      4.00      28.0855
      72     1 Si  14    0.157571   11.542584    2.278303      4.00      28.0855
      73     2 H    1   -4.046164    8.832824    0.029296      1.00       1.0079
      74     2 H    1   -1.929339    8.333431    3.779767      1.00       1.0079
      75     2 H    1   -1.657232   10.449849    5.020887      1.00       1.0079
      76     2 H    1   -0.421974    8.846739    9.065249      1.00       1.0079
      77     2 H    1   -0.067707    9.425812    0.075636      1.00       1.0079
      78     2 H    1    2.144265    8.384980    3.710673      1.00       1.0079
      79     2 H    1   -6.727065   10.419023    5.535991      1.00       1.0079
      80     2 H    1   -3.888351    8.847276    8.625667      1.00       1.0079
      81     2 H    1   -5.884991   12.863494    0.008234      1.00       1.0079
      82     2 H    1   -3.974779   11.107368    3.581786      1.00       1.0079
      83     2 H    1    0.108246    7.509733    5.052549      1.00       1.0079
      84     2 H    1   -2.216031   12.625244    8.882625      1.00       1.0079
      85     2 H    1   -1.946643   12.626281    0.028456      1.00       1.0079
      86     2 H    1    0.292007   11.697783    3.732448      1.00       1.0079
      87     2 H    1   -4.141080    6.681746    4.786892      1.00       1.0079
      88     2 H    1   -5.535396   12.621272    9.201795      1.00       1.0079
      89     3 Ge  32   -2.062056   10.302702    6.559246      4.00      72.6400
      90     3 Ge  32   -0.256246    9.090446    7.567831      4.00      72.6400
      91     3 Ge  32   -6.217596   10.222599    6.925157      4.00      72.6400
      92     3 Ge  32   -4.086048    9.053884    7.164435      4.00      72.6400
      93     3 Ge  32   -0.261072    6.978024    6.445924      4.00      72.6400
      94     3 Ge  32   -2.035069   12.679154    7.356208      4.00      72.6400
      95     3 Ge  32   -4.182503    6.819923    6.296216      4.00      72.6400
      96     3 Ge  32   -5.922525   12.714495    7.723152      4.00      72.6400
      97     1 Si  14    4.207396    9.258542    1.286333      4.00      28.0855
      98     1 Si  14    6.044344    8.055108    2.190461      4.00      28.0855
      99     1 Si  14    8.059382    9.029565    1.437136      4.00      28.0855
     100     1 Si  14   10.095628    8.094255    2.270360      4.00      28.0855
     101     1 Si  14    2.064823   12.627436    1.431411      4.00      28.0855
     102     1 Si  14    4.215292   11.534393    2.001683      4.00      28.0855
     103     1 Si  14    6.231799   12.670828    1.401176      4.00      28.0855
     104     1 Si  14    8.121026   11.349445    1.968208      4.00      28.0855
     105     2 H    1    4.067852    9.095961   -0.222373      1.00       1.0079
     106     2 H    1    5.901240    8.257791    3.735938      1.00       1.0079
     107     2 H    1    6.073586   10.155506    5.879979      1.00       1.0079
     108     2 H    1    8.132753    9.143760    9.745879      1.00       1.0079
     109     2 H    1    8.108841    8.786004   -0.043970      1.00       1.0079
     110     2 H    1    9.985944    8.079288    3.751443      1.00       1.0079
     111     2 H    1    1.909677   10.064391    5.418368      1.00       1.0079
     112     2 H    1    3.498925    8.919693    9.223508      1.00       1.0079
     113     2 H    1    2.040229   12.751110   -0.055230      1.00       1.0079
     114     2 H    1    4.250991   11.291486    3.501603      1.00       1.0079
     115     2 H    1    8.083987    7.646249    5.470395      1.00       1.0079
     116     2 H    1    6.156554   12.835443    9.539529      1.00       1.0079
     117     2 H    1    6.388785   12.875093   -0.058851      1.00       1.0079
     118     2 H    1    8.160591   11.225737    3.495742      1.00       1.0079
     119     2 H    1    3.854406    6.801553    5.261854      1.00       1.0079
     120     2 H    1    2.155156   12.583599    9.023389      1.00       1.0079
     121     3 Ge  32    6.019399   10.350615    7.393908      4.00      72.6400
     122     3 Ge  32    7.918030    9.002499    8.240888      4.00      72.6400
     123     3 Ge  32    1.789426   10.190440    6.922653      4.00      72.6400
     124     3 Ge  32    3.862890    9.074058    7.709972      4.00      72.6400
     125     3 Ge  32    7.794064    6.908066    6.828131      4.00      72.6400
     126     3 Ge  32    6.225749   12.628287    8.021240      4.00      72.6400
     127     3 Ge  32    3.887845    6.893442    6.851443      4.00      72.6400
     128     3 Ge  32    2.057562   12.614884    7.482300      4.00      72.6400




 SCF PARAMETERS         Density guess:                                   RESTART
                        --------------------------------------------------------
                        max_scf:                                              50
                        max_scf_history:                                       0
                        max_diis:                                              4
                        --------------------------------------------------------
                        eps_scf:                                        1.00E-06
                        eps_scf_history:                                0.00E+00
                        eps_diis:                                       1.00E-01
                        eps_eigval:                                     1.00E-05
                        --------------------------------------------------------
                        level_shift [a.u.]:                                 0.00
                        added MOs                                        50    0
                        --------------------------------------------------------
                        Mixing method:                            BROYDEN_MIXING
                                                charge density mixing in g-space
                        --------------------------------------------------------
                        No outer SCF

 PW_GRID| Information for grid number                                          1
 PW_GRID| Grid distributed over                                    40 processors
 PW_GRID| Real space group dimensions                                    40    1
 PW_GRID| the grid is blocked:                                                NO
 PW_GRID| Cutoff [a.u.]                                                    250.0
 PW_GRID| spherical cutoff:                                                   NO
 PW_GRID|   Bounds   1           -108     107                Points:         216
 PW_GRID|   Bounds   2           -108     107                Points:         216
 PW_GRID|   Bounds   3           -202     202                Points:         405
 PW_GRID| Volume element (a.u.^3)  0.2336E-02     Volume (a.u.^3)     44134.1676
 PW_GRID| Grid span                                                    FULLSPACE
 PW_GRID|   Distribution                         Average         Max         Min
 PW_GRID|   G-Vectors                           472392.0      472392      472392
 PW_GRID|   G-Rays                                2187.0        2187        2187
 PW_GRID|   Real Space Points                   472392.0      524880      437400

 PW_GRID| Information for grid number                                          2
 PW_GRID| Number of the reference grid                                         1
 PW_GRID| Grid distributed over                                    40 processors
 PW_GRID| Real space group dimensions                                    40    1
 PW_GRID| the grid is blocked:                                                NO
 PW_GRID| Cutoff [a.u.]                                                     83.3
 PW_GRID| spherical cutoff:                                                   NO
 PW_GRID|   Bounds   1            -62      62                Points:         125
 PW_GRID|   Bounds   2            -62      62                Points:         125
 PW_GRID|   Bounds   3           -120     119                Points:         240
 PW_GRID| Volume element (a.u.^3)  0.1177E-01     Volume (a.u.^3)     44134.1676
 PW_GRID| Grid span                                                    FULLSPACE
 PW_GRID|   Distribution                         Average         Max         Min
 PW_GRID|   G-Vectors                            93750.0       94250       92750
 PW_GRID|   G-Rays                                 750.0         754         742
 PW_GRID|   Real Space Points                    93750.0      120000       90000

 PW_GRID| Information for grid number                                          3
 PW_GRID| Number of the reference grid                                         1
 PW_GRID| Grid distributed over                                    40 processors
 PW_GRID| Real space group dimensions                                    40    1
 PW_GRID| the grid is blocked:                                                NO
 PW_GRID| Cutoff [a.u.]                                                     27.8
 PW_GRID| spherical cutoff:                                                   NO
 PW_GRID|   Bounds   1            -36      35                Points:          72
 PW_GRID|   Bounds   2            -36      35                Points:          72
 PW_GRID|   Bounds   3            -67      67                Points:         135
 PW_GRID| Volume element (a.u.^3)  0.6306E-01     Volume (a.u.^3)     44134.1676
 PW_GRID| Grid span                                                    FULLSPACE
 PW_GRID|   Distribution                         Average         Max         Min
 PW_GRID|   G-Vectors                            17496.0       17784       17208
 PW_GRID|   G-Rays                                 243.0         247         239
 PW_GRID|   Real Space Points                    17496.0       19440        9720

 PW_GRID| Information for grid number                                          4
 PW_GRID| Number of the reference grid                                         1
 PW_GRID| Grid distributed over                                    40 processors
 PW_GRID| Real space group dimensions                                    40    1
 PW_GRID| the grid is blocked:                                                NO
 PW_GRID| Cutoff [a.u.]                                                      9.3
 PW_GRID| spherical cutoff:                                                   NO
 PW_GRID|   Bounds   1            -22      22                Points:          45
 PW_GRID|   Bounds   2            -22      22                Points:          45
 PW_GRID|   Bounds   3            -40      39                Points:          80
 PW_GRID| Volume element (a.u.^3)  0.2724         Volume (a.u.^3)     44134.1676
 PW_GRID| Grid span                                                    FULLSPACE
 PW_GRID|   Distribution                         Average         Max         Min
 PW_GRID|   G-Vectors                             4050.0        4320        3690
 PW_GRID|   G-Rays                                  90.0          96          82
 PW_GRID|   Real Space Points                     4050.0        7200        3600

 PW_GRID| Information for grid number                                          5
 PW_GRID| Number of the reference grid                                         1
 PW_GRID| Grid distributed over                                    40 processors
 PW_GRID| Real space group dimensions                                     5    8
 PW_GRID| the grid is blocked:                                                NO
 PW_GRID| Cutoff [a.u.]                                                      3.1
 PW_GRID| spherical cutoff:                                                   NO
 PW_GRID|   Bounds   1            -12      11                Points:          24
 PW_GRID|   Bounds   2            -12      11                Points:          24
 PW_GRID|   Bounds   3            -22      22                Points:          45
 PW_GRID| Volume element (a.u.^3)   1.703         Volume (a.u.^3)     44134.1676
 PW_GRID| Grid span                                                    FULLSPACE
 PW_GRID|   Distribution                         Average         Max         Min
 PW_GRID|   G-Vectors                              648.0         696         600
 PW_GRID|   G-Rays                                  27.0          29          25
 PW_GRID|   Real Space Points                      648.0         675         540

 PW_GRID| Information for grid number                                          6
 PW_GRID| Number of the reference grid                                         1
 PW_GRID| Grid distributed over                                    40 processors
 PW_GRID| Real space group dimensions                                     5    8
 PW_GRID| the grid is blocked:                                                NO
 PW_GRID| Cutoff [a.u.]                                                      1.0
 PW_GRID| spherical cutoff:                                                   NO
 PW_GRID|   Bounds   1             -7       7                Points:          15
 PW_GRID|   Bounds   2             -7       7                Points:          15
 PW_GRID|   Bounds   3            -12      12                Points:          25
 PW_GRID| Volume element (a.u.^3)   7.846         Volume (a.u.^3)     44134.1676
 PW_GRID| Grid span                                                    FULLSPACE
 PW_GRID|   Distribution                         Average         Max         Min
 PW_GRID|   G-Vectors                              140.6         195         105
 PW_GRID|   G-Rays                                   9.4          13           7
 PW_GRID|   Real Space Points                      140.6         150          75

 PW_GRID| Information for grid number                                          7
 PW_GRID| Number of the reference grid                                         1
 PW_GRID| Grid distributed over                                    40 processors
 PW_GRID| Real space group dimensions                                     5    8
 PW_GRID| the grid is blocked:                                                NO
 PW_GRID| Cutoff [a.u.]                                                      0.3
 PW_GRID| spherical cutoff:                                                   NO
 PW_GRID|   Bounds   1             -4       3                Points:           8
 PW_GRID|   Bounds   2             -4       3                Points:           8
 PW_GRID|   Bounds   3             -7       7                Points:          15
 PW_GRID| Volume element (a.u.^3)   45.97         Volume (a.u.^3)     44134.1676
 PW_GRID| Grid span                                                    FULLSPACE
 PW_GRID|   Distribution                         Average         Max         Min
 PW_GRID|   G-Vectors                               24.0          48          16
 PW_GRID|   G-Rays                                   3.0           6           2
 PW_GRID|   Real Space Points                       24.0          30          15

 PW_GRID| Information for grid number                                          8
 PW_GRID| Number of the reference grid                                         1
 PW_GRID| Grid distributed over                                    40 processors
 PW_GRID| Real space group dimensions                                     5    8
 PW_GRID| the grid is blocked:                                                NO
 PW_GRID| Cutoff [a.u.]                                                      0.1
 PW_GRID| spherical cutoff:                                                   NO
 PW_GRID|   Bounds   1             -3       2                Points:           6
 PW_GRID|   Bounds   2             -3       2                Points:           6
 PW_GRID|   Bounds   3             -4       4                Points:           9
 PW_GRID| Volume element (a.u.^3)   136.2         Volume (a.u.^3)     44134.1676
 PW_GRID| Grid span                                                    FULLSPACE
 PW_GRID|   Distribution                         Average         Max         Min
 PW_GRID|   G-Vectors                                8.1          18           0
 PW_GRID|   G-Rays                                   1.4           3           0
 PW_GRID|   Real Space Points                        8.1          18           0

 PW_GRID| Information for grid number                                          9
 PW_GRID| Number of the reference grid                                         1
 PW_GRID| Grid distributed over                                    40 processors
 PW_GRID| Real space group dimensions                                     5    8
 PW_GRID| the grid is blocked:                                                NO
 PW_GRID| Cutoff [a.u.]                                                      0.0
 PW_GRID| spherical cutoff:                                                   NO
 PW_GRID|   Bounds   1             -2       1                Points:           4
 PW_GRID|   Bounds   2             -2       1                Points:           4
 PW_GRID|   Bounds   3             -3       2                Points:           6
 PW_GRID| Volume element (a.u.^3)   459.7         Volume (a.u.^3)     44134.1676
 PW_GRID| Grid span                                                    FULLSPACE
 PW_GRID|   Distribution                         Average         Max         Min
 PW_GRID|   G-Vectors                                2.4           4           0
 PW_GRID|   G-Rays                                   0.6           1           0
 PW_GRID|   Real Space Points                        2.4           6           0

 PW_GRID| Information for grid number                                         10
 PW_GRID| Number of the reference grid                                         1
 PW_GRID| Grid distributed over                                    40 processors
 PW_GRID| Real space group dimensions                                     5    8
 PW_GRID| the grid is blocked:                                                NO
 PW_GRID| Cutoff [a.u.]                                                      0.0
 PW_GRID| spherical cutoff:                                                   NO
 PW_GRID|   Bounds   1             -1       0                Points:           2
 PW_GRID|   Bounds   2             -1       0                Points:           2
 PW_GRID|   Bounds   3             -2       1                Points:           4
 PW_GRID| Volume element (a.u.^3)   2758.         Volume (a.u.^3)     44134.1676
 PW_GRID| Grid span                                                    FULLSPACE
 PW_GRID|   Distribution                         Average         Max         Min
 PW_GRID|   G-Vectors                                0.4           2           0
 PW_GRID|   G-Rays                                   0.2           1           0
 PW_GRID|   Real Space Points                        0.4           4           0

 PW_GRID| Information for grid number                                         11
 PW_GRID| Number of the reference grid                                         1
 PW_GRID| Grid distributed over                                    40 processors
 PW_GRID| Real space group dimensions                                     5    8
 PW_GRID| the grid is blocked:                                                NO
 PW_GRID| Cutoff [a.u.]                                                      0.0
 PW_GRID| spherical cutoff:                                                   NO
 PW_GRID|   Bounds   1             -1       0                Points:           2
 PW_GRID|   Bounds   2             -1       0                Points:           2
 PW_GRID|   Bounds   3             -1       0                Points:           2
 PW_GRID| Volume element (a.u.^3)   5517.         Volume (a.u.^3)     44134.1676
 PW_GRID| Grid span                                                    FULLSPACE
 PW_GRID|   Distribution                         Average         Max         Min
 PW_GRID|   G-Vectors                                0.2           2           0
 PW_GRID|   G-Rays                                   0.1           1           0
 PW_GRID|   Real Space Points                        0.2           2           0

 PW_GRID| Information for grid number                                         12
 PW_GRID| Number of the reference grid                                         1
 PW_GRID| Grid distributed over                                    40 processors
 PW_GRID| Real space group dimensions                                     5    8
 PW_GRID| the grid is blocked:                                                NO
 PW_GRID| Cutoff [a.u.]                                                      0.0
 PW_GRID| spherical cutoff:                                                   NO
 PW_GRID|   Bounds   1             -1       0                Points:           2
 PW_GRID|   Bounds   2             -1       0                Points:           2
 PW_GRID|   Bounds   3             -1       0                Points:           2
 PW_GRID| Volume element (a.u.^3)   5517.         Volume (a.u.^3)     44134.1676
 PW_GRID| Grid span                                                    FULLSPACE
 PW_GRID|   Distribution                         Average         Max         Min
 PW_GRID|   G-Vectors                                0.2           2           0
 PW_GRID|   G-Rays                                   0.1           1           0
 PW_GRID|   Real Space Points                        0.2           2           0

 PW_GRID| Information for grid number                                         13
 PW_GRID| Number of the reference grid                                         1
 PW_GRID| Grid distributed over                                    40 processors
 PW_GRID| Real space group dimensions                                     5    8
 PW_GRID| the grid is blocked:                                                NO
 PW_GRID| Cutoff [a.u.]                                                      0.0
 PW_GRID| spherical cutoff:                                                   NO
 PW_GRID|   Bounds   1             -1       0                Points:           2
 PW_GRID|   Bounds   2             -1       0                Points:           2
 PW_GRID|   Bounds   3             -1       0                Points:           2
 PW_GRID| Volume element (a.u.^3)   5517.         Volume (a.u.^3)     44134.1676
 PW_GRID| Grid span                                                    FULLSPACE
 PW_GRID|   Distribution                         Average         Max         Min
 PW_GRID|   G-Vectors                                0.2           2           0
 PW_GRID|   G-Rays                                   0.1           1           0
 PW_GRID|   Real Space Points                        0.2           2           0

 PW_GRID| Information for grid number                                         14
 PW_GRID| Number of the reference grid                                         1
 PW_GRID| Grid distributed over                                    40 processors
 PW_GRID| Real space group dimensions                                     5    8
 PW_GRID| the grid is blocked:                                                NO
 PW_GRID| Cutoff [a.u.]                                                      0.0
 PW_GRID| spherical cutoff:                                                   NO
 PW_GRID|   Bounds   1             -1       0                Points:           2
 PW_GRID|   Bounds   2             -1       0                Points:           2
 PW_GRID|   Bounds   3             -1       0                Points:           2
 PW_GRID| Volume element (a.u.^3)   5517.         Volume (a.u.^3)     44134.1676
 PW_GRID| Grid span                                                    FULLSPACE
 PW_GRID|   Distribution                         Average         Max         Min
 PW_GRID|   G-Vectors                                0.2           2           0
 PW_GRID|   G-Rays                                   0.1           1           0
 PW_GRID|   Real Space Points                        0.2           2           0

 PW_GRID| Information for grid number                                         15
 PW_GRID| Number of the reference grid                                         1
 PW_GRID| Grid distributed over                                    40 processors
 PW_GRID| Real space group dimensions                                     5    8
 PW_GRID| the grid is blocked:                                                NO
 PW_GRID| Cutoff [a.u.]                                                      0.0
 PW_GRID| spherical cutoff:                                                   NO
 PW_GRID|   Bounds   1             -1       0                Points:           2
 PW_GRID|   Bounds   2             -1       0                Points:           2
 PW_GRID|   Bounds   3             -1       0                Points:           2
 PW_GRID| Volume element (a.u.^3)   5517.         Volume (a.u.^3)     44134.1676
 PW_GRID| Grid span                                                    FULLSPACE
 PW_GRID|   Distribution                         Average         Max         Min
 PW_GRID|   G-Vectors                                0.2           2           0
 PW_GRID|   G-Rays                                   0.1           1           0
 PW_GRID|   Real Space Points                        0.2           2           0

 PW_GRID| Information for grid number                                         16
 PW_GRID| Number of the reference grid                                         1
 PW_GRID| Grid distributed over                                    40 processors
 PW_GRID| Real space group dimensions                                     5    8
 PW_GRID| the grid is blocked:                                                NO
 PW_GRID| Cutoff [a.u.]                                                      0.0
 PW_GRID| spherical cutoff:                                                   NO
 PW_GRID|   Bounds   1             -1       0                Points:           2
 PW_GRID|   Bounds   2             -1       0                Points:           2
 PW_GRID|   Bounds   3             -1       0                Points:           2
 PW_GRID| Volume element (a.u.^3)   5517.         Volume (a.u.^3)     44134.1676
 PW_GRID| Grid span                                                    FULLSPACE
 PW_GRID|   Distribution                         Average         Max         Min
 PW_GRID|   G-Vectors                                0.2           2           0
 PW_GRID|   G-Rays                                   0.1           1           0
 PW_GRID|   Real Space Points                        0.2           2           0

 POISSON| Solver                                                        PERIODIC
 POISSON| Periodicity                                                        XYZ

 RS_GRID| Information for grid number                                          1
 RS_GRID|   Bounds   1           -108     107                Points:         216
 RS_GRID|   Bounds   2           -108     107                Points:         216
 RS_GRID|   Bounds   3           -202     202                Points:         405
 RS_GRID| Real space distribution over                                  5 groups
 RS_GRID| Real space distribution along direction                              2
 RS_GRID| Border size                                                         53
 RS_GRID| Real space distribution over                                  8 groups
 RS_GRID| Real space distribution along direction                              3
 RS_GRID| Border size                                                         53
 RS_GRID|   Distribution                         Average         Max         Min
 RS_GRID|   Planes                                 149.2         150         149
 RS_GRID|   Distribution                         Average         Max         Min
 RS_GRID|   Planes                                 156.6         157         156

 RS_GRID| Information for grid number                                          2
 RS_GRID|   Bounds   1            -62      62                Points:         125
 RS_GRID|   Bounds   2            -62      62                Points:         125
 RS_GRID|   Bounds   3           -120     119                Points:         240
 RS_GRID| Real space distribution over                                  5 groups
 RS_GRID| Real space distribution along direction                              2
 RS_GRID| Border size                                                         41
 RS_GRID| Real space distribution over                                  8 groups
 RS_GRID| Real space distribution along direction                              3
 RS_GRID| Border size                                                         41
 RS_GRID|   Distribution                         Average         Max         Min
 RS_GRID|   Planes                                 107.0         107         107
 RS_GRID|   Distribution                         Average         Max         Min
 RS_GRID|   Planes                                 112.0         112         112

 RS_GRID| Information for grid number                                          3
 RS_GRID|   Bounds   1            -36      35                Points:          72
 RS_GRID|   Bounds   2            -36      35                Points:          72
 RS_GRID|   Bounds   3            -67      67                Points:         135
 RS_GRID| Real space fully replicated
 RS_GRID| Group size                                                           1

 RS_GRID| Information for grid number                                          4
 RS_GRID|   Bounds   1            -22      22                Points:          45
 RS_GRID|   Bounds   2            -22      22                Points:          45
 RS_GRID|   Bounds   3            -40      39                Points:          80
 RS_GRID| Real space fully replicated
 RS_GRID| Group size                                                           1

 RS_GRID| Information for grid number                                          5
 RS_GRID|   Bounds   1            -12      11                Points:          24
 RS_GRID|   Bounds   2            -12      11                Points:          24
 RS_GRID|   Bounds   3            -22      22                Points:          45
 RS_GRID| Real space fully replicated
 RS_GRID| Group size                                                           1

 RS_GRID| Information for grid number                                          6
 RS_GRID|   Bounds   1             -7       7                Points:          15
 RS_GRID|   Bounds   2             -7       7                Points:          15
 RS_GRID|   Bounds   3            -12      12                Points:          25
 RS_GRID| Real space fully replicated
 RS_GRID| Group size                                                           1

 RS_GRID| Information for grid number                                          7
 RS_GRID|   Bounds   1             -4       3                Points:           8
 RS_GRID|   Bounds   2             -4       3                Points:           8
 RS_GRID|   Bounds   3             -7       7                Points:          15
 RS_GRID| Real space fully replicated
 RS_GRID| Group size                                                           1

 RS_GRID| Information for grid number                                          8
 RS_GRID|   Bounds   1             -3       2                Points:           6
 RS_GRID|   Bounds   2             -3       2                Points:           6
 RS_GRID|   Bounds   3             -4       4                Points:           9
 RS_GRID| Real space fully replicated
 RS_GRID| Group size                                                           1

 RS_GRID| Information for grid number                                          9
 RS_GRID|   Bounds   1             -2       1                Points:           4
 RS_GRID|   Bounds   2             -2       1                Points:           4
 RS_GRID|   Bounds   3             -3       2                Points:           6
 RS_GRID| Real space fully replicated
 RS_GRID| Group size                                                           1

 RS_GRID| Information for grid number                                         10
 RS_GRID|   Bounds   1             -1       0                Points:           2
 RS_GRID|   Bounds   2             -1       0                Points:           2
 RS_GRID|   Bounds   3             -2       1                Points:           4
 RS_GRID| Real space fully replicated
 RS_GRID| Group size                                                           1

 RS_GRID| Information for grid number                                         11
 RS_GRID|   Bounds   1             -1       0                Points:           2
 RS_GRID|   Bounds   2             -1       0                Points:           2
 RS_GRID|   Bounds   3             -1       0                Points:           2
 RS_GRID| Real space fully replicated
 RS_GRID| Group size                                                           1

 RS_GRID| Information for grid number                                         12
 RS_GRID|   Bounds   1             -1       0                Points:           2
 RS_GRID|   Bounds   2             -1       0                Points:           2
 RS_GRID|   Bounds   3             -1       0                Points:           2
 RS_GRID| Real space fully replicated
 RS_GRID| Group size                                                           1

 RS_GRID| Information for grid number                                         13
 RS_GRID|   Bounds   1             -1       0                Points:           2
 RS_GRID|   Bounds   2             -1       0                Points:           2
 RS_GRID|   Bounds   3             -1       0                Points:           2
 RS_GRID| Real space fully replicated
 RS_GRID| Group size                                                           1

 RS_GRID| Information for grid number                                         14
 RS_GRID|   Bounds   1             -1       0                Points:           2
 RS_GRID|   Bounds   2             -1       0                Points:           2
 RS_GRID|   Bounds   3             -1       0                Points:           2
 RS_GRID| Real space fully replicated
 RS_GRID| Group size                                                           1

 RS_GRID| Information for grid number                                         15
 RS_GRID|   Bounds   1             -1       0                Points:           2
 RS_GRID|   Bounds   2             -1       0                Points:           2
 RS_GRID|   Bounds   3             -1       0                Points:           2
 RS_GRID| Real space fully replicated
 RS_GRID| Group size                                                           1

 RS_GRID| Information for grid number                                         16
 RS_GRID|   Bounds   1             -1       0                Points:           2
 RS_GRID|   Bounds   2             -1       0                Points:           2
 RS_GRID|   Bounds   3             -1       0                Points:           2
 RS_GRID| Real space fully replicated
 RS_GRID| Group size                                                           1

 Number of electrons:                                                        320
 Number of occupied orbitals:                                                160
 Number of molecular orbitals:                                               210

 Number of orbital functions:                                               1152
 Number of independent orbital functions:                                   1152

 Extrapolation method: initial_guess

 *** WARNING in qs_initial_guess.F:280 :: User requested to restart the    ***
 *** wavefunction from the file named: Diag_libra-2010-RESTART.wfn. This   ***
 *** file does not exist. Please check the existence of the file or change ***
 *** properly the value of the keyword WFN_RESTART_FILE_NAME. Calculation  ***
 *** continues using ATOMIC GUESS.                                         ***


 Atomic guess: The first density matrix is obtained in terms of atomic orbitals
               and electronic configurations assigned to each atomic kind

 Guess for atomic kind: Si

 Electronic structure
    Total number of core electrons                                         10.00
    Total number of valence electrons                                       4.00
    Total number of electrons                                              14.00
    Multiplicity                                                   not specified
    S   [  2.00  2.00] 2.00
    P   [  6.00] 2.00
 

 *******************************************************************************
                  Iteration          Convergence                     Energy [au]
 *******************************************************************************
                          1        0.526541E-01                  -3.659692963728
                          2        0.125823E-01                  -3.661785675622
                          3        0.408986E-04                  -3.661911567360
                          4        0.675570E-07                  -3.661911568709

 Energy components [Hartree]           Total Energy ::           -3.661911568709
                                        Band Energy ::           -0.941881516273
                                     Kinetic Energy ::            1.409736465412
                                   Potential Energy ::           -5.071648034121
                                      Virial (-V/T) ::            3.597585902439
                                        Core Energy ::           -5.690149137281
                                          XC Energy ::           -0.992569238249
                                     Coulomb Energy ::            3.020806806821
                       Total Pseudopotential Energy ::           -7.143143335066
                       Local Pseudopotential Energy ::           -8.006124475851
                    Nonlocal Pseudopotential Energy ::            0.862981140786
                                        Confinement ::            0.432577323720

 Orbital energies  State     L     Occupation   Energy[a.u.]          Energy[eV]

                       1     0          2.000      -0.357276           -9.721984
 
                       1     1          2.000      -0.113664           -3.092965
 

 Total Electron Density at R=0:                                         0.000026

 Guess for atomic kind: H

 Electronic structure
    Total number of core electrons                                          0.00
    Total number of valence electrons                                       1.00
    Total number of electrons                                               1.00
    Multiplicity                                                   not specified
    S      1.00
 

 *******************************************************************************
                  Iteration          Convergence                     Energy [au]
 *******************************************************************************
                          1        0.250972E-02                  -0.375256815885
                          2        0.570752E-04                  -0.375258666164
                          3        0.832405E-09                  -0.375258667122

 Energy components [Hartree]           Total Energy ::           -0.375258667122
                                        Band Energy ::           -0.076317618391
                                     Kinetic Energy ::            0.771356566341
                                   Potential Energy ::           -1.146615233463
                                      Virial (-V/T) ::            1.486491829455
                                        Core Energy ::           -0.456090715790
                                          XC Energy ::           -0.314218627334
                                     Coulomb Energy ::            0.395050676003
                       Total Pseudopotential Energy ::           -1.238482237174
                       Local Pseudopotential Energy ::           -1.238482237174
                    Nonlocal Pseudopotential Energy ::            0.000000000000
                                        Confinement ::            0.110349550431

 Orbital energies  State     L     Occupation   Energy[a.u.]          Energy[eV]

                       1     0          1.000      -0.076318           -2.076708
 

 Total Electron Density at R=0:                                         0.425022

 Guess for atomic kind: Ge

 Electronic structure
    Total number of core electrons                                         28.00
    Total number of valence electrons                                       4.00
    Total number of electrons                                              32.00
    Multiplicity                                                   not specified
    S   [  2.00  2.00  2.00] 2.00
    P   [  6.00  6.00] 2.00
    D   [ 10.00]
 

 *******************************************************************************
                  Iteration          Convergence                     Energy [au]
 *******************************************************************************
[...]
 TDDFPT|     18       1.63339   9.9170E-02 -1.1004E-01  2.1434E-02   8.96507E-04
 TDDFPT|     19       1.64605   2.3306E+00  9.0567E-01 -1.3679E-02   2.52134E-01
 TDDFPT|     20       1.65071   4.0117E-01 -8.9304E-02 -1.1262E-02   6.83630E-03

 Excitation analysis

   State        Occupied         Virtual        Excitation
   number        orbital         orbital        amplitude
 ---------------------------------------------------------
        1
                  160             161             0.998839
        2
                  160             162            -0.999019
        3
                  159             161             0.998603
        4
                  160             163            -0.997610
                  160             164             0.063660
        5
                  159             162             0.999294
        6
                  160             164            -0.932238
                  160             165            -0.353244
                  160             163            -0.054844
        7
                  159             163            -0.995443
                  159             164             0.063671
                  160             165            -0.051203
        8
                  160             165            -0.933739
                  160             164             0.348711
                  159             163             0.063169
        9
                  159             164            -0.930416
                  159             165            -0.359408
                  159             163            -0.053616
       10
                  159             165             0.932755
                  159             164            -0.356426
       11
                  160             166             0.999838
       12
                  160             167            -0.999581
       13
                  159             166            -0.999815
       14
                  160             169            -0.992686
                  160             168             0.119790
       15
                  160             168             0.979065
                  160             169             0.118365
                  159             168             0.116792
                  160             171            -0.065826
       16
                  159             167            -0.998962
       17
                  160             170            -0.995356
                  160             171            -0.083953
       18
                  159             169            -0.980632
                  159             168             0.194252
       19
                  159             168            -0.890647
                  160             171            -0.388717
                  159             169            -0.183464
                  160             168             0.083731
                  160             170             0.065078
                  159             170             0.059711
       20
                  160             172             0.919948
                  160             171             0.340303
                  159             168            -0.179204

 -------------------------------------------------------------------------------
 ----                             MULTIGRID INFO                            ----
 -------------------------------------------------------------------------------
 count for grid        1:        2293116          cutoff [a.u.]           50.00
 count for grid        2:         695551          cutoff [a.u.]           16.67
 count for grid        3:         204750          cutoff [a.u.]            5.56
 count for grid        4:              0          cutoff [a.u.]            1.85
 count for grid        5:              0          cutoff [a.u.]            0.62
 count for grid        6:              0          cutoff [a.u.]            0.21
 count for grid        7:              0          cutoff [a.u.]            0.07
 count for grid        8:              0          cutoff [a.u.]            0.02
 count for grid        9:              0          cutoff [a.u.]            0.01
 count for grid       10:              0          cutoff [a.u.]            0.00
 count for grid       11:              0          cutoff [a.u.]            0.00
 count for grid       12:              0          cutoff [a.u.]            0.00
 count for grid       13:              0          cutoff [a.u.]            0.00
 count for grid       14:              0          cutoff [a.u.]            0.00
 count for grid       15:              0          cutoff [a.u.]            0.00
 count for grid       16:              0          cutoff [a.u.]            0.00
 count for grid       17:              0          cutoff [a.u.]            0.00
 count for grid       18:              0          cutoff [a.u.]            0.00
 count for grid       19:              0          cutoff [a.u.]            0.00
 count for grid       20:              0          cutoff [a.u.]            0.00
 count for grid       21:              0          cutoff [a.u.]            0.00
 count for grid       22:              0          cutoff [a.u.]            0.00
 count for grid       23:              0          cutoff [a.u.]            0.00
 count for grid       24:              0          cutoff [a.u.]            0.00
 count for grid       25:              0          cutoff [a.u.]            0.00
 total gridlevel count  :        3193417

 ENERGY| Total FORCE_EVAL ( QS ) energy (a.u.):             -288.500892751094852


 -------------------------------------------------------------------------------
 -                                                                             -
 -                                DBCSR STATISTICS                             -
 -                                                                             -
 -------------------------------------------------------------------------------
 COUNTER                                    TOTAL       BLAS       SMM       ACC
 flops     5 x     5 x    18             48672000       0.0%    100.0%      0.0%
 flops     5 x    13 x    18            124600320       0.0%    100.0%      0.0%
 flops    13 x     5 x    18            124600320       0.0%    100.0%      0.0%
 flops    13 x    13 x    18            329022720       0.0%    100.0%      0.0%
 flops     5 x     5 x    32            519168000       0.0%    100.0%      0.0%
 flops     5 x    13 x    32           1329070080       0.0%    100.0%      0.0%
 flops    13 x     5 x    32           1329070080       0.0%    100.0%      0.0%
 flops    13 x    13 x    32           3509575680       0.0%    100.0%      0.0%
 flops     5 x    32 x     5          20853555200       0.0%    100.0%      0.0%
 flops     5 x    32 x    13          54219243520       0.0%    100.0%      0.0%
 flops    13 x    32 x     5          54219243520       0.0%    100.0%      0.0%
 flops    13 x    32 x    13         140970033152       0.0%    100.0%      0.0%
 flops inhomo. stacks                           0       0.0%      0.0%      0.0%
 flops total                       277.575855E+09       0.0%    100.0%      0.0%
 flops max/rank                     13.926847E+09       0.0%    100.0%      0.0%
 matmuls inhomo. stacks                         0       0.0%      0.0%      0.0%
 matmuls total                           53636480       0.0%    100.0%      0.0%
 number of processed stacks               1033920       0.0%    100.0%      0.0%
 average stack size                                     0.0      51.9       0.0
 marketing flops                   281.303581E+09
 -------------------------------------------------------------------------------
 # multiplications                            652
 max memory usage/rank             710.057984E+06
 # max total images/rank                        5
 # max 3D layers                                1
 # MPI messages exchanged                  860640
 MPI messages size (bytes):
  total size                        63.233917E+09
  min size                           0.000000E+00
  max size                         177.000000E+03
  average size                      73.473133E+03
 MPI breakdown and total messages size (bytes):
             size <=      128              209508                        0
       128 < size <=     8192                   0                        0
      8192 < size <=    32768              192660               2911334400
     32768 < size <=   131072              233112              28130734080
    131072 < size <=  4194304              225360              32192225280
   4194304 < size <= 16777216                   0                        0
  16777216 < size                               0                        0
 -------------------------------------------------------------------------------

 *** WARNING in dbcsr_mm.F:295 :: Using a non-square number of MPI ranks ***
 *** might lead to poor performance. Used ranks: 40 Suggested: 36 81     ***

 -------------------------------------------------------------------------------
 -                                                                             -
 -                      DBCSR MESSAGE PASSING PERFORMANCE                      -
 -                                                                             -
 -------------------------------------------------------------------------------
 ROUTINE             CALLS      AVE VOLUME [Bytes]
 MP_Group              658
 MP_Bcast               13                     12.
 MP_Allreduce         2104                      8.
 MP_Alltoall         16169                  33512.
 MP_Wait             46944
 MP_ISend            49500                  36438.
 MP_IRecv            52056                  34165.
 MP_Memory           81308
 -------------------------------------------------------------------------------
 
 MEMORY| Estimated peak process memory [MiB]                                 678

 -------------------------------------------------------------------------------
 ----                             MULTIGRID INFO                            ----
 -------------------------------------------------------------------------------
 count for grid        1:         596020          cutoff [a.u.]          250.00
 count for grid        2:         693786          cutoff [a.u.]           83.33
 count for grid        3:         493147          cutoff [a.u.]           27.78
 count for grid        4:         293344          cutoff [a.u.]            9.26
 count for grid        5:           8320          cutoff [a.u.]            3.09
 count for grid        6:              0          cutoff [a.u.]            1.03
 count for grid        7:              0          cutoff [a.u.]            0.34
 count for grid        8:              0          cutoff [a.u.]            0.11
 count for grid        9:              0          cutoff [a.u.]            0.04
 count for grid       10:              0          cutoff [a.u.]            0.01
 count for grid       11:              0          cutoff [a.u.]            0.00
 count for grid       12:              0          cutoff [a.u.]            0.00
 count for grid       13:              0          cutoff [a.u.]            0.00
 count for grid       14:              0          cutoff [a.u.]            0.00
 count for grid       15:              0          cutoff [a.u.]            0.00
 count for grid       16:              0          cutoff [a.u.]            0.00
 total gridlevel count  :        2084617

 -------------------------------------------------------------------------------
 -                                                                             -
 -                         MESSAGE PASSING PERFORMANCE                         -
 -                                                                             -
 -------------------------------------------------------------------------------

 ROUTINE             CALLS      AVE VOLUME [Bytes]
 MP_Group               41
 MP_Bcast              162                3466757.
 MP_Allreduce        19779                    329.
 MP_Sync             13977
 MP_Alltoall         20455                 675130.
 MP_ISendRecv       329394                   6023.
 MP_Wait            372576
 MP_comm_split          36
 MP_ISend            39840                 123193.
 MP_IRecv            40714                 120559.
 MP_Recv               198                 151645.
 -------------------------------------------------------------------------------


 -------------------------------------------------------------------------------
 -                                                                             -
 -                           R E F E R E N C E S                               -
 -                                                                             -
 -------------------------------------------------------------------------------
 
 CP2K version 7.1, the CP2K developers group (2019).
 CP2K is freely available from https://www.cp2k.org/ .

 Schuett, Ole; Messmer, Peter; Hutter, Juerg; VandeVondele, Joost. 
 Electronic Structure Calculations on Graphics Processing Units, John
 Wiley & Sons, Ltd, 173-190 (2016). 
 GPU-Accelerated Sparse Matrix-Matrix Multiplication for
 Linear Scaling Density Functional Theory.
 https://dx.doi.org/10.1002/9781118670712.ch8

 Borstnik, U; VandeVondele, J; Weber, V; Hutter, J. 
 PARALLEL COMPUTING, 40 (5-6), 47-58 (2014). 
 Sparse matrix multiplication: The distributed block-compressed sparse
 row library.
 https://dx.doi.org/10.1016/j.parco.2014.03.012

 Hutter, J; Iannuzzi, M; Schiffmann, F; VandeVondele, J. 
 WIREs Comput Mol Sci., 4 (1), 15-25 (2014). 
 CP2K: atomistic simulations of condensed matter systems.
 https://dx.doi.org/10.1002/wcms.1159

 Grimme, S; Ehrlich, S; Goerigk, L. 
 JOURNAL OF COMPUTATIONAL CHEMISTRY, 32, 1456 (2011). 
 Effect of the damping function in dispersion corrected density functional theory.
 https://dx.doi.org/10.1002/jcc.21759

 Grimme, S; Antony, J; Ehrlich, S; Krieg, H. 
 JOURNAL OF CHEMICAL PHYSICS, 132 (15), 154104 (2010). 
 A consistent and accurate ab initio parametrization of density
 functional dispersion correction (DFT-D) for the 94 elements H-Pu.
 https://dx.doi.org/10.1063/1.3382344

 VandeVondele, J; Hutter, J. 
 JOURNAL OF CHEMICAL PHYSICS, 127 (11), 114105 (2007). 
 Gaussian basis sets for accurate calculations on molecular systems in
 gas and condensed phases.
 https://dx.doi.org/10.1063/1.2770708

 Krack, M. 
 THEORETICAL CHEMISTRY ACCOUNTS, 114 (1-3), 145-152 (2005). 
 Pseudopotentials for H to Kr optimized for gradient-corrected
 exchange-correlation functionals.
 https://dx.doi.org/10.1007/s00214-005-0655-y

 VandeVondele, J; Krack, M; Mohamed, F; Parrinello, M; Chassaing, T;
 Hutter, J. COMPUTER PHYSICS COMMUNICATIONS, 167 (2), 103-128 (2005). 
 QUICKSTEP: Fast and accurate density functional calculations using a
 mixed Gaussian and plane waves approach.
 https://dx.doi.org/10.1016/j.cpc.2004.12.014

 Frigo, M; Johnson, SG. 
 PROCEEDINGS OF THE IEEE, 93 (2), 216-231 (2005). 
 The design and implementation of FFTW3.
 https://dx.doi.org/10.1109/JPROC.2004.840301

 Iannuzzi, M; Chassaing, T; Wallman, T; Hutter, J. 
 CHIMIA, 59 (7-8), 499-503 (2005). 
 Ground and excited state density functional calculations with the
 Gaussian and augmented-plane-wave method.
 https://dx.doi.org/10.2533/000942905777676164

 Hartwigsen, C; Goedecker, S; Hutter, J. 
 PHYSICAL REVIEW B, 58 (7), 3641-3662 (1998). 
 Relativistic separable dual-space Gaussian pseudopotentials from H to Rn.
 https://dx.doi.org/10.1103/PhysRevB.58.3641

 Lippert, G; Hutter, J; Parrinello, M. 
 MOLECULAR PHYSICS, 92 (3), 477-487 (1997). 
 A hybrid Gaussian and plane wave density functional scheme.
 https://dx.doi.org/10.1080/002689797170220

 Perdew, JP; Burke, K; Ernzerhof, M. 
 PHYSICAL REVIEW LETTERS, 77 (18), 3865-3868 (1996). 
 Generalized gradient approximation made simple.
 https://dx.doi.org/10.1103/PhysRevLett.77.3865

 Goedecker, S; Teter, M; Hutter, J. 
 PHYSICAL REVIEW B, 54 (3), 1703-1710 (1996). 
 Separable dual-space Gaussian pseudopotentials.
 https://dx.doi.org/10.1103/PhysRevB.54.1703


 -------------------------------------------------------------------------------
 -                                                                             -
 -                                T I M I N G                                  -
 -                                                                             -
 -------------------------------------------------------------------------------
 SUBROUTINE                       CALLS  ASD         SELF TIME        TOTAL TIME
                                MAXIMUM       AVERAGE  MAXIMUM  AVERAGE  MAXIMUM
 CP2K                                 1  1.0    0.044    0.058  390.581  390.584
 qs_energies                          1  2.0    0.000    0.001  389.946  389.949
 qs_energies_properties               1  3.0    0.000    0.000  303.055  303.059
 tddfpt                               1  4.0    0.001    0.003  303.055  303.059
 tddfpt_davidson_solver               2  5.0    0.002    0.003  301.332  301.334
 tddfpt_compute_Aop_evects            8  6.0    0.011    0.035  296.947  296.949
 qs_rho_update_rho                  188  6.7    0.002    0.002  176.697  176.701
 calculate_rho_elec                 188  7.7   76.418  153.593  176.695  176.699
 integrate_v_rspace                 186  7.3   69.190  142.548  161.465  161.609
 rs_pw_transfer                    8874  9.5    0.024    0.030  100.835  124.503
 density_rs2pw                      188  8.7    0.026    0.027   97.507  121.326
 mp_waitany                       24396 11.5   85.387  108.945   85.387  108.945
 rs_pw_transfer_RS2PW_50            161 11.0    0.873    0.983   79.357  102.433
 mp_alltoall_d11v                  7309 10.4   77.194   97.933   77.194   97.933
 rs_distribute_matrix               374  8.5    0.207    0.521   77.010   97.593
 scf_env_do_scf                       1  3.0    0.000    0.002   83.238   83.242
 scf_env_do_scf_inner_loop           26  4.0    0.002    0.004   83.237   83.242
 qs_ks_update_qs_env                 26  5.0    0.000    0.000   44.430   44.440
 rebuild_ks_matrix                   26  6.0    0.000    0.000   44.418   44.430
 qs_ks_build_kohn_sham_matrix        26  7.0    0.007    0.019   44.418   44.430
 pw_transfer                      11271  9.4    0.631    0.680   35.609   35.903
 fft_wrap_pw1pw2                  10899 10.4    0.039    0.043   34.656   34.923
 fft3d_ps                         10899 12.4   11.467   12.807   27.744   28.392
 sum_up_and_integrate                26  8.0    0.164    0.234   24.042   24.045
 fft_wrap_pw1pw2_250                314 11.5    1.772    2.054   21.997   22.216
 qs_vxc_create                       26  8.0    0.001    0.002   17.482   17.578
 xc_vxc_pw_create                    26  9.0    0.198    0.241   17.481   17.577
 potential_pw2rs                    186  8.3    0.046    0.051   16.042   16.170
 mp_alltoall_z22v                 10899 14.4   10.467   12.101   10.467   12.101
 xc_rho_set_and_dset_create          27  9.9    0.096    0.112    8.938    9.254
 fft_wrap_pw1pw2_50                2086 10.8    0.636    0.728    8.362    8.447
 -------------------------------------------------------------------------------

 The number of warnings for this run is : 2
 
 -------------------------------------------------------------------------------
  **** **** ******  **  PROGRAM ENDED AT                 2024-10-12 10:08:20.965
 ***** ** ***  *** **   PROGRAM RAN ON                      nia0272.scinet.local
 **    ****   ******    PROGRAM RAN BY                                  ekadashi
 ***** **    ** ** **   PROGRAM PROCESS ID                                 59361
  **** **  *******  **  PROGRAM STOPPED IN /gpfs/fs0/scratch/t/tzeng/ekadashi/Li
                                           bra_CP2K/SiGe_Hetero/step2/job2
