 DBCSR| CPU Multiplication driver                                           XSMM
 DBCSR| Multrec recursion limit                                              512
 DBCSR| Multiplication stack size                                           1000
 DBCSR| Maximum elements for images                                    UNLIMITED
 DBCSR| Multiplicative factor virtual images                                   1
 DBCSR| Use multiplication densification                                       T
 DBCSR| Multiplication size stacks                                             3
 DBCSR| Number of 3D layers                                               SINGLE
 DBCSR| Use MPI memory allocation                                              T
 DBCSR| Use RMA algorithm                                                      F
 DBCSR| Use Communication thread                                               T
 DBCSR| Communication thread load                                             87


  **** **** ******  **  PROGRAM STARTED AT               2024-10-12 09:55:23.112
 ***** ** ***  *** **   PROGRAM STARTED ON                  nia0271.scinet.local
 **    ****   ******    PROGRAM STARTED BY                              ekadashi
 ***** **    ** ** **   PROGRAM PROCESS ID                                206684
  **** **  *******  **  PROGRAM STARTED IN /gpfs/fs0/scratch/t/tzeng/ekadashi/Li
                                           bra_CP2K/SiGe_Hetero/step2/job1

 CP2K| version string:                                          CP2K version 7.1
 CP2K| source code revision number:                                  git:e635599
 CP2K| cp2kflags: libint fftw3 libxc parallel mpi3 scalapack xsmm plumed2       
 CP2K| is freely available from                            https://www.cp2k.org/
 CP2K| Program compiled at                       Tue 15 Sep 2020 05:43:08 PM -00
 CP2K| Program compiled on                          build-node2.computecanada.ca
 CP2K| Program compiled for                                   Linux-x86-64-iomkl
 CP2K| Data directory path    /cvmfs/soft.computecanada.ca/easybuild/software/20
 CP2K| Input file name                                       Diag_libra-2003.inp
 
 GLOBAL| Force Environment number                                              1
 GLOBAL| Basis set file name                                        BASIS_MOLOPT
 GLOBAL| Potential file name                                           POTENTIAL
 GLOBAL| MM Potential file name                                     MM_POTENTIAL
 GLOBAL| Coordinate file name                                     coord-2003.xyz
 GLOBAL| Method name                                                        CP2K
 GLOBAL| Project name                                            Diag_libra-2003
 GLOBAL| Preferred FFT library                                             FFTW3
 GLOBAL| Preferred diagonalization lib.                                       SL
 GLOBAL| Run type                                                         ENERGY
 GLOBAL| All-to-all communication in single precision                          F
 GLOBAL| FFTs using library dependent lengths                                  F
 GLOBAL| Global print level                                               MEDIUM
 GLOBAL| MPI I/O enabled                                                       T
 GLOBAL| Total number of message passing processes                            40
 GLOBAL| Number of threads for this process                                    1
 GLOBAL| This output is from process                                           0
 GLOBAL| CPU model name                 Intel(R) Xeon(R) Gold 6148 CPU @ 2.40GHz
 GLOBAL| CPUID                                                              1003
 GLOBAL| Compiled for CPUID                                                 1002

 MEMORY| system memory details [Kb]
 MEMORY|                        rank 0           min           max       average
 MEMORY| MemTotal            197718156     197718156     197718156     197718156
 MEMORY| MemFree              33251828      33251828      33256168      33253176
 MEMORY| Buffers                     0             0             0             0
 MEMORY| Cached              143352348     143352348     143352348     143352348
 MEMORY| Slab                  2171288       2171288       2171288       2171288
 MEMORY| SReclaimable          1705896       1705896       1705896       1705896
 MEMORY| MemLikelyFree       178310072     178310072     178314412     178311420


 *** Fundamental physical constants (SI units) ***

 *** Literature: B. J. Mohr and B. N. Taylor,
 ***             CODATA recommended values of the fundamental physical
 ***             constants: 2006, Web Version 5.1
 ***             http://physics.nist.gov/constants

 Speed of light in vacuum [m/s]                             2.99792458000000E+08
 Magnetic constant or permeability of vacuum [N/A**2]       1.25663706143592E-06
 Electric constant or permittivity of vacuum [F/m]          8.85418781762039E-12
 Planck constant (h) [J*s]                                  6.62606896000000E-34
 Planck constant (h-bar) [J*s]                              1.05457162825177E-34
 Elementary charge [C]                                      1.60217648700000E-19
 Electron mass [kg]                                         9.10938215000000E-31
 Electron g factor [ ]                                     -2.00231930436220E+00
 Proton mass [kg]                                           1.67262163700000E-27
 Fine-structure constant                                    7.29735253760000E-03
 Rydberg constant [1/m]                                     1.09737315685270E+07
 Avogadro constant [1/mol]                                  6.02214179000000E+23
 Boltzmann constant [J/K]                                   1.38065040000000E-23
 Atomic mass unit [kg]                                      1.66053878200000E-27
 Bohr radius [m]                                            5.29177208590000E-11

 *** Conversion factors ***

 [u] -> [a.u.]                                              1.82288848426455E+03
 [Angstrom] -> [Bohr] = [a.u.]                              1.88972613288564E+00
 [a.u.] = [Bohr] -> [Angstrom]                              5.29177208590000E-01
 [a.u.] -> [s]                                              2.41888432650478E-17
 [a.u.] -> [fs]                                             2.41888432650478E-02
 [a.u.] -> [J]                                              4.35974393937059E-18
 [a.u.] -> [N]                                              8.23872205491840E-08
 [a.u.] -> [K]                                              3.15774647902944E+05
 [a.u.] -> [kJ/mol]                                         2.62549961709828E+03
 [a.u.] -> [kcal/mol]                                       6.27509468713739E+02
 [a.u.] -> [Pa]                                             2.94210107994716E+13
 [a.u.] -> [bar]                                            2.94210107994716E+08
 [a.u.] -> [atm]                                            2.90362800883016E+08
 [a.u.] -> [eV]                                             2.72113838565563E+01
 [a.u.] -> [Hz]                                             6.57968392072181E+15
 [a.u.] -> [1/cm] (wave numbers)                            2.19474631370540E+05
 [a.u./Bohr**2] -> [1/cm]                                   5.14048714338585E+03
 

 CELL_TOP| Volume [angstrom^3]:                                         6540.009
 CELL_TOP| Vector a [angstrom    15.928     0.000     0.000    |a| =      15.928
 CELL_TOP| Vector b [angstrom    -7.965    13.786     0.000    |b| =      15.922
 CELL_TOP| Vector c [angstrom    -0.000     0.000    29.784    |c| =      29.784
 CELL_TOP| Angle (b,c), alpha [degree]:                                   90.000
 CELL_TOP| Angle (a,c), beta  [degree]:                                   90.000
 CELL_TOP| Angle (a,b), gamma [degree]:                                  120.015
 CELL_TOP| Numerically orthorhombic:                                          NO
 
 GENERATE|  Preliminary Number of Bonds generated:                             0
 GENERATE|  Achieved consistency in connectivity generation.

 CELL| Volume [angstrom^3]:                                             6540.009
 CELL| Vector a [angstrom]:      15.928     0.000     0.000    |a| =      15.928
 CELL| Vector b [angstrom]:      -7.965    13.786     0.000    |b| =      15.922
 CELL| Vector c [angstrom]:      -0.000     0.000    29.784    |c| =      29.784
 CELL| Angle (b,c), alpha [degree]:                                       90.000
 CELL| Angle (a,c), beta  [degree]:                                       90.000
 CELL| Angle (a,b), gamma [degree]:                                      120.015
 CELL| Numerically orthorhombic:                                              NO

 CELL_REF| Volume [angstrom^3]:                                         6540.009
 CELL_REF| Vector a [angstrom    15.928     0.000     0.000    |a| =      15.928
 CELL_REF| Vector b [angstrom    -7.965    13.786     0.000    |b| =      15.922
 CELL_REF| Vector c [angstrom    -0.000     0.000    29.784    |c| =      29.784
 CELL_REF| Angle (b,c), alpha [degree]:                                   90.000
 CELL_REF| Angle (a,c), beta  [degree]:                                   90.000
 CELL_REF| Angle (a,b), gamma [degree]:                                  120.015
 CELL_REF| Numerically orthorhombic:                                          NO

 *******************************************************************************
 *******************************************************************************
 **                                                                           **
 **     #####                         ##              ##                      **
 **    ##   ##            ##          ##              ##                      **
 **   ##     ##                       ##            ######                    **
 **   ##     ##  ##   ##  ##   #####  ##  ##   ####   ##    #####    #####    **
 **   ##     ##  ##   ##  ##  ##      ## ##   ##      ##   ##   ##  ##   ##   **
 **   ##  ## ##  ##   ##  ##  ##      ####     ###    ##   ######   ######    **
 **    ##  ###   ##   ##  ##  ##      ## ##      ##   ##   ##       ##        **
 **     #######   #####   ##   #####  ##  ##  ####    ##    #####   ##        **
 **           ##                                                    ##        **
 **                                                                           **
 **                                                ... make the atoms dance   **
 **                                                                           **
 **            Copyright (C) by CP2K developers group (2000 - 2019)           **
 **                                                                           **
 *******************************************************************************

 DFT| Spin restricted Kohn-Sham (RKS) calculation                            RKS
 DFT| Multiplicity                                                             1
 DFT| Number of spin states                                                    1
 DFT| Charge                                                                   0
 DFT| Self-interaction correction (SIC)                                       NO
 DFT| Cutoffs: density                                              1.000000E-10
 DFT|          gradient                                             1.000000E-10
 DFT|          tau                                                  1.000000E-10
 DFT|          cutoff_smoothing_range                               0.000000E+00
 DFT| XC density smoothing                                                  NONE
 DFT| XC derivatives                                                          PW
 FUNCTIONAL| ROUTINE=NEW
 FUNCTIONAL| PBE:
 FUNCTIONAL| J.P.Perdew, K.Burke, M.Ernzerhof, Phys. Rev. Letter, vol. 77, n 18,
 FUNCTIONAL|  pp. 3865-3868, (1996){spin unpolarized}                           
 vdW POTENTIAL|                                                   Pair Potential
 vdW POTENTIAL|          DFT-D3 (Version 3.1)
 vdW POTENTIAL|          Potential Form: S. Grimme et al, JCP 132: 154104 (2010)
 vdW POTENTIAL|          Zero Damping
 vdW POTENTIAL|          Cutoff Radius [Bohr]:                             30.24
 vdW POTENTIAL|          s6 Scaling Factor:                               1.0000
 vdW POTENTIAL|          sr6 Scaling Factor:                              1.2170
 vdW POTENTIAL|          s8 Scaling Factor:                               0.7220
 vdW POTENTIAL|          Cutoff for CN calculation:                   0.1000E-05

 QS| Method:                                                                 GPW
 QS| Density plane wave grid type                        NON-SPHERICAL FULLSPACE
 QS| Number of grid levels:                                                   16
 QS| Density cutoff [a.u.]:                                                250.0
 QS| Multi grid cutoff [a.u.]: 1) grid level                               250.0
 QS|                           2) grid level                                83.3
 QS|                           3) grid level                                27.8
 QS|                           4) grid level                                 9.3
 QS|                           5) grid level                                 3.1
 QS|                           6) grid level                                 1.0
 QS|                           7) grid level                                 0.3
 QS|                           8) grid level                                 0.1
 QS|                           9) grid level                                 0.0
 QS|                          10) grid level                                 0.0
 QS|                          11) grid level                                 0.0
 QS|                          12) grid level                                 0.0
 QS|                          13) grid level                                 0.0
 QS|                          14) grid level                                 0.0
 QS|                          15) grid level                                 0.0
 QS|                          16) grid level                                 0.0
 QS| Grid level progression factor:                                          3.0
 QS| Relative density cutoff [a.u.]:                                        25.0
 QS| Consistent realspace mapping and integration 
 QS| Interaction thresholds: eps_pgf_orb:                                1.0E-07
 QS|                         eps_filter_matrix:                          0.0E+00
 QS|                         eps_core_charge:                            1.0E-16
 QS|                         eps_rho_gspace:                             1.0E-14
 QS|                         eps_rho_rspace:                             1.0E-14
 QS|                         eps_gvg_rspace:                             1.0E-07
 QS|                         eps_ppl:                                    1.0E-02
 QS|                         eps_ppnl:                                   1.0E-09


 ATOMIC KIND INFORMATION

  1. Atomic kind: Si                                    Number of atoms:      32

     Orbital Basis Set                                     DZVP-MOLOPT-SR-GTH-q4

       Number of orbital shell sets:                                           1
       Number of orbital shells:                                               5
       Number of primitive Cartesian functions:                                4
       Number of Cartesian basis functions:                                   14
       Number of spherical basis functions:                                   13
       Norm type:                                                              2

       Normalised Cartesian orbitals:

                        Set   Shell   Orbital            Exponent    Coefficient

                          1       1    2s                1.256768       0.294045
                                                         0.506394      -0.015884
                                                         0.238884      -0.207657
                                                         0.087337      -0.036225

                          1       2    3s                1.256768      -1.532347
                                                         0.506394       0.524539
                                                         0.238884       0.025013
                                                         0.087337      -0.052203

                          1       3    3px               1.256768       0.152274
                                                         0.506394      -0.154145
                                                         0.238884      -0.115581
                                                         0.087337      -0.028372
                          1       3    3py               1.256768       0.152274
                                                         0.506394      -0.154145
                                                         0.238884      -0.115581
                                                         0.087337      -0.028372
                          1       3    3pz               1.256768       0.152274
                                                         0.506394      -0.154145
                                                         0.238884      -0.115581
                                                         0.087337      -0.028372

                          1       4    4px               1.256768       0.313378
                                                         0.506394      -0.415360
                                                         0.238884      -0.022539
                                                         0.087337       0.078473
                          1       4    4py               1.256768       0.313378
                                                         0.506394      -0.415360
                                                         0.238884      -0.022539
                                                         0.087337       0.078473
                          1       4    4pz               1.256768       0.313378
                                                         0.506394      -0.415360
                                                         0.238884      -0.022539
                                                         0.087337       0.078473

                          1       5    4dx2              1.256768       0.325879
                                                         0.506394       0.163831
                                                         0.238884       0.044076
                                                         0.087337       0.010608
                          1       5    4dxy              1.256768       0.564439
                                                         0.506394       0.283764
                                                         0.238884       0.076342
                                                         0.087337       0.018373
                          1       5    4dxz              1.256768       0.564439
                                                         0.506394       0.283764
                                                         0.238884       0.076342
                                                         0.087337       0.018373
                          1       5    4dy2              1.256768       0.325879
                                                         0.506394       0.163831
                                                         0.238884       0.044076
                                                         0.087337       0.010608
                          1       5    4dyz              1.256768       0.564439
                                                         0.506394       0.283764
                                                         0.238884       0.076342
                                                         0.087337       0.018373
                          1       5    4dz2              1.256768       0.325879
                                                         0.506394       0.163831
                                                         0.238884       0.044076
                                                         0.087337       0.010608

     GTH Potential information for                                       GTH-PBE

       Description:                       Goedecker-Teter-Hutter pseudopotential
                                           Goedecker et al., PRB 54, 1703 (1996)
                                          Hartwigsen et al., PRB 58, 3641 (1998)
                                                      Krack, TCA 114, 145 (2005)

       Gaussian exponent of the core charge distribution:               2.582645
       Electronic configuration (s p d ...):                               2   2

       Parameters of the local part of the GTH pseudopotential:

                          rloc        C1          C2          C3          C4
                        0.440000   -6.269288

       Parameters of the non-local part of the GTH pseudopotential:

                   l      r(l)      h(i,j,l)

                   0    0.435634    8.951742   -2.706271
                                   -2.706271    3.493781
                   1    0.497942    2.431277

  2. Atomic kind: H                                     Number of atoms:      64

     Orbital Basis Set                                     DZVP-MOLOPT-SR-GTH-q1

       Number of orbital shell sets:                                           1
       Number of orbital shells:                                               3
       Number of primitive Cartesian functions:                                5
       Number of Cartesian basis functions:                                    5
       Number of spherical basis functions:                                    5
       Norm type:                                                              2

       Normalised Cartesian orbitals:

                        Set   Shell   Orbital            Exponent    Coefficient

                          1       1    2s               10.068468      -0.133023
                                                         2.680223      -0.177618
                                                         0.791502      -0.258419
                                                         0.239116      -0.107525
                                                         0.082193      -0.014019

                          1       2    3s               10.068468       0.344673
                                                         2.680223       1.819821
                                                         0.791502      -0.999069
                                                         0.239116       0.017430
                                                         0.082193       0.082660

                          1       3    3px              10.068468       0.155326
                                                         2.680223       0.367157
                                                         0.791502       0.311480
                                                         0.239116       0.080105
                                                         0.082193       0.033440
                          1       3    3py              10.068468       0.155326
                                                         2.680223       0.367157
                                                         0.791502       0.311480
                                                         0.239116       0.080105
                                                         0.082193       0.033440
                          1       3    3pz              10.068468       0.155326
                                                         2.680223       0.367157
                                                         0.791502       0.311480
                                                         0.239116       0.080105
                                                         0.082193       0.033440

     GTH Potential information for                                       GTH-PBE

       Description:                       Goedecker-Teter-Hutter pseudopotential
                                           Goedecker et al., PRB 54, 1703 (1996)
                                          Hartwigsen et al., PRB 58, 3641 (1998)
                                                      Krack, TCA 114, 145 (2005)

       Gaussian exponent of the core charge distribution:              12.500000
       Electronic configuration (s p d ...):                                   1

       Parameters of the local part of the GTH pseudopotential:

                          rloc        C1          C2          C3          C4
                        0.200000   -4.178900    0.724463

  3. Atomic kind: Ge                                    Number of atoms:      32

     Orbital Basis Set                                     DZVP-MOLOPT-SR-GTH-q4

       Number of orbital shell sets:                                           1
       Number of orbital shells:                                               5
       Number of primitive Cartesian functions:                                4
       Number of Cartesian basis functions:                                   14
       Number of spherical basis functions:                                   13
       Norm type:                                                              2

       Normalised Cartesian orbitals:

                        Set   Shell   Orbital            Exponent    Coefficient

                          1       1    2s                3.751626      -0.120003
                                                         1.419172       0.428185
                                                         0.322428      -0.228255
                                                         0.110740      -0.068975

                          1       2    3s                3.751626       0.273885
                                                         1.419172      -0.836040
                                                         0.322428       0.584240
                                                         0.110740      -0.261045

                          1       3    3px               3.751626       0.064521
                                                         1.419172       0.216179
                                                         0.322428      -0.253385
                                                         0.110740      -0.035002
                          1       3    3py               3.751626       0.064521
                                                         1.419172       0.216179
                                                         0.322428      -0.253385
                                                         0.110740      -0.035002
                          1       3    3pz               3.751626       0.064521
                                                         1.419172       0.216179
                                                         0.322428      -0.253385
                                                         0.110740      -0.035002

                          1       4    4px               3.751626      -0.201632
                                                         1.419172      -0.391570
                                                         0.322428       0.486065
                                                         0.110740      -0.127990
                          1       4    4py               3.751626      -0.201632
                                                         1.419172      -0.391570
                                                         0.322428       0.486065
                                                         0.110740      -0.127990
                          1       4    4pz               3.751626      -0.201632
                                                         1.419172      -0.391570
                                                         0.322428       0.486065
                                                         0.110740      -0.127990

                          1       5    4dx2              3.751626      -0.158822
                                                         1.419172       0.193543
                                                         0.322428       0.178643
                                                         0.110740       0.009408
                          1       5    4dxy              3.751626      -0.275088
                                                         1.419172       0.335227
                                                         0.322428       0.309418
                                                         0.110740       0.016296
                          1       5    4dxz              3.751626      -0.275088
                                                         1.419172       0.335227
                                                         0.322428       0.309418
                                                         0.110740       0.016296
                          1       5    4dy2              3.751626      -0.158822
                                                         1.419172       0.193543
                                                         0.322428       0.178643
                                                         0.110740       0.009408
                          1       5    4dyz              3.751626      -0.275088
                                                         1.419172       0.335227
                                                         0.322428       0.309418
                                                         0.110740       0.016296
                          1       5    4dz2              3.751626      -0.158822
                                                         1.419172       0.193543
                                                         0.322428       0.178643
                                                         0.110740       0.009408

     GTH Potential information for                                       GTH-PBE

       Description:                       Goedecker-Teter-Hutter pseudopotential
                                           Goedecker et al., PRB 54, 1703 (1996)
                                          Hartwigsen et al., PRB 58, 3641 (1998)
                                                      Krack, TCA 114, 145 (2005)

       Gaussian exponent of the core charge distribution:               1.714678
       Electronic configuration (s p d ...):                               2   2

       Parameters of the local part of the GTH pseudopotential:

                          rloc        C1          C2          C3          C4
                        0.540000

       Parameters of the non-local part of the GTH pseudopotential:

                   l      r(l)      h(i,j,l)

                   0    0.421865    7.510241   -0.588108   -1.447976
                                   -0.588108   -1.595888    3.738657
                                   -1.447976    3.738657   -2.967467
                   1    0.567529    0.913860    0.546875
                                    0.546875   -0.647072
                   2    0.813914    0.197177


 MOLECULE KIND INFORMATION


 All atoms are their own molecule, skipping detailed information


 TOTAL NUMBERS AND MAXIMUM NUMBERS

  Total number of            - Atomic kinds:                                   3
                             - Atoms:                                        128
                             - Shell sets:                                   128
                             - Shells:                                       512
                             - Primitive Cartesian functions:                576
                             - Cartesian basis functions:                   1216
                             - Spherical basis functions:                   1152

  Maximum angular momentum of- Orbital basis functions:                        2
                             - Local part of the GTH pseudopotential:          2
                             - Non-local part of the GTH pseudopotential:      4


 MODULE QUICKSTEP:  ATOMIC COORDINATES IN angstrom

  Atom  Kind  Element       X           Y           Z          Z(eff)       Mass

       1     1 Si  14    0.279668    2.356989    1.886226      4.00      28.0855
       2     1 Si  14    2.213591    1.114982    2.346164      4.00      28.0855
       3     1 Si  14    4.045985    2.239171    1.519824      4.00      28.0855
       4     1 Si  14    6.008622    1.161533    2.336603      4.00      28.0855
       5     1 Si  14   -1.881564    5.700397    1.874495      4.00      28.0855
       6     1 Si  14    0.091134    4.536615    2.648660      4.00      28.0855
       7     1 Si  14    1.970555    5.808233    1.825291      4.00      28.0855
       8     1 Si  14    4.108317    4.586070    2.318772      4.00      28.0855
       9     2 H    1    0.622305    2.363959    0.454045      1.00       1.0079
      10     2 H    1    2.258464    0.859435    3.816726      1.00       1.0079
      11     2 H    1    1.782005    3.570057    5.242346      1.00       1.0079
      12     2 H    1    3.701463    2.257216    8.938447      1.00       1.0079
      13     2 H    1    4.003347    2.302419    0.074698      1.00       1.0079
      14     2 H    1    5.863776    0.984628    3.818551      1.00       1.0079
      15     2 H    1   -1.736478    3.525541    5.064932      1.00       1.0079
      16     2 H    1   -0.254653    2.896066    9.335088      1.00       1.0079
      17     2 H    1   -1.620372    5.670452    0.410968      1.00       1.0079
      18     2 H    1    0.072776    4.442606    4.145492      1.00       1.0079
      19     2 H    1    3.958696    0.005255    5.158123      1.00       1.0079
      20     2 H    1    1.766577    5.983392    9.097073      1.00       1.0079
      21     2 H    1    1.664103    5.854742    0.325178      1.00       1.0079
      22     2 H    1    4.275868    4.309764    3.832982      1.00       1.0079
      23     2 H    1    0.148472    0.247308    5.568566      1.00       1.0079
      24     2 H    1   -2.259595    6.009008    8.791897      1.00       1.0079
      25     3 Ge  32    1.878837    3.656947    6.846578      4.00      72.6400
      26     3 Ge  32    3.877914    2.379075    7.406335      4.00      72.6400
      27     3 Ge  32   -1.939313    3.415650    6.539144      4.00      72.6400
      28     3 Ge  32   -0.095783    2.617308    7.795838      4.00      72.6400
      29     3 Ge  32    3.950679    0.056732    6.656392      4.00      72.6400
      30     3 Ge  32    1.770422    5.984017    7.565931      4.00      72.6400
      31     3 Ge  32    0.050610    0.264233    7.142166      4.00      72.6400
      32     3 Ge  32   -2.208113    5.780475    7.243430      4.00      72.6400
      33     1 Si  14    8.028686    2.270409    1.780705      4.00      28.0855
      34     1 Si  14   10.072393    1.102133    2.291231      4.00      28.0855
      35     1 Si  14   12.169828    2.280860    1.794285      4.00      28.0855
      36     1 Si  14   14.244604    1.210643    2.409013      4.00      28.0855
      37     1 Si  14    6.175028    5.739737    1.680107      4.00      28.0855
      38     1 Si  14    8.184399    4.620660    2.476651      4.00      28.0855
      39     1 Si  14   10.029398    5.740978    1.628103      4.00      28.0855
      40     1 Si  14   11.987413    4.543192    2.256883      4.00      28.0855
      41     2 H    1    7.979702    2.532813    0.355862      1.00       1.0079
      42     2 H    1   10.004647    0.966490    3.748938      1.00       1.0079
      43     2 H    1    9.582127    3.289912    5.107064      1.00       1.0079
      44     2 H    1   12.049448    2.051956    8.804219      1.00       1.0079
      45     2 H    1   12.106226    2.299926    0.329173      1.00       1.0079
      46     2 H    1   14.194784    0.849867    3.843847      1.00       1.0079
      47     2 H    1    6.217902    3.507718    5.270381      1.00       1.0079
      48     2 H    1    7.879691    2.269267    9.129944      1.00       1.0079
      49     2 H    1    6.395226    5.656575    0.206888      1.00       1.0079
      50     2 H    1    8.080480    4.711789    4.001830      1.00       1.0079
      51     2 H    1   12.372776   -0.811112    5.374066      1.00       1.0079
      52     2 H    1   10.140055    5.759371    8.750591      1.00       1.0079
      53     2 H    1    9.913478    5.554474    0.111599      1.00       1.0079
      54     2 H    1   12.033232    4.683586    3.764592      1.00       1.0079
      55     2 H    1    7.941443    0.244080    5.234050      1.00       1.0079
      56     2 H    1    5.926600    5.884474    9.033012      1.00       1.0079
      57     3 Ge  32    9.983978    3.232665    6.610161      4.00      72.6400
      58     3 Ge  32   12.110947    2.093654    7.214720      4.00      72.6400
      59     3 Ge  32    6.065134    3.260089    6.739497      4.00      72.6400
      60     3 Ge  32    8.059386    2.255339    7.616761      4.00      72.6400
      61     3 Ge  32   12.191532   -0.347853    6.821242      4.00      72.6400
      62     3 Ge  32    9.742501    5.625196    7.272252      4.00      72.6400
      63     3 Ge  32    7.930413   -0.003071    6.687418      4.00      72.6400
      64     3 Ge  32    5.870376    5.676046    7.491562      4.00      72.6400
      65     1 Si  14   -3.830367    9.152944    1.483870      4.00      28.0855
      66     1 Si  14   -1.798379    8.093751    2.295358      4.00      28.0855
      67     1 Si  14    0.206053    9.194855    1.546897      4.00      28.0855
      68     1 Si  14    2.238545    8.265699    2.118754      4.00      28.0855
      69     1 Si  14   -5.847227   12.661669    1.437021      4.00      28.0855
      70     1 Si  14   -3.936504   11.433759    2.100517      4.00      28.0855
      71     1 Si  14   -1.815850   12.728624    1.525005      4.00      28.0855
      72     1 Si  14    0.169794   11.567443    2.231016      4.00      28.0855
      73     2 H    1   -4.092822    8.844429    0.052424      1.00       1.0079
      74     2 H    1   -2.039763    8.110773    3.789588      1.00       1.0079
      75     2 H    1   -1.672210   10.467143    5.139208      1.00       1.0079
      76     2 H    1   -0.393391    8.961967    9.145409      1.00       1.0079
      77     2 H    1   -0.088319    9.291341    0.060543      1.00       1.0079
      78     2 H    1    2.082396    8.316983    3.565661      1.00       1.0079
      79     2 H    1   -6.686700   10.631915    5.449535      1.00       1.0079
      80     2 H    1   -3.895555    8.811676    8.759512      1.00       1.0079
      81     2 H    1   -5.794751   12.898725   -0.132872      1.00       1.0079
      82     2 H    1   -4.038640   11.170420    3.580872      1.00       1.0079
      83     2 H    1   -0.067974    7.537211    5.005431      1.00       1.0079
      84     2 H    1   -2.106936   12.689421    8.892562      1.00       1.0079
      85     2 H    1   -1.986015   12.671758    0.020041      1.00       1.0079
      86     2 H    1    0.159653   11.674898    3.771599      1.00       1.0079
      87     2 H    1   -4.109094    6.611843    4.785641      1.00       1.0079
      88     2 H    1   -5.459690   12.796045    9.184961      1.00       1.0079
      89     3 Ge  32   -2.058138   10.311929    6.592232      4.00      72.6400
      90     3 Ge  32   -0.250536    9.106184    7.576135      4.00      72.6400
      91     3 Ge  32   -6.207506   10.225042    6.937714      4.00      72.6400
      92     3 Ge  32   -4.079134    9.043322    7.194318      4.00      72.6400
      93     3 Ge  32   -0.259236    6.997055    6.458407      4.00      72.6400
      94     3 Ge  32   -2.041928   12.691267    7.363398      4.00      72.6400
      95     3 Ge  32   -4.193737    6.810792    6.318163      4.00      72.6400
      96     3 Ge  32   -5.927479   12.734975    7.706631      4.00      72.6400
      97     1 Si  14    4.184022    9.252909    1.302960      4.00      28.0855
      98     1 Si  14    6.052030    8.035982    2.182868      4.00      28.0855
      99     1 Si  14    8.115673    9.055473    1.486637      4.00      28.0855
     100     1 Si  14   10.135926    8.075637    2.249825      4.00      28.0855
     101     1 Si  14    2.085261   12.641710    1.413737      4.00      28.0855
     102     1 Si  14    4.199322   11.529875    1.992339      4.00      28.0855
     103     1 Si  14    6.222441   12.653825    1.404879      4.00      28.0855
     104     1 Si  14    8.116997   11.317965    1.971987      4.00      28.0855
     105     2 H    1    4.041004    9.252886   -0.167915      1.00       1.0079
     106     2 H    1    5.858231    8.279494    3.610540      1.00       1.0079
     107     2 H    1    6.314167   10.257481    5.811735      1.00       1.0079
     108     2 H    1    7.981127    9.061416    9.748849      1.00       1.0079
     109     2 H    1    8.018040    8.852486   -0.007912      1.00       1.0079
     110     2 H    1   10.188856    8.120928    3.747168      1.00       1.0079
     111     2 H    1    1.850796   10.161795    5.321801      1.00       1.0079
     112     2 H    1    3.623645    8.982836    9.201677      1.00       1.0079
     113     2 H    1    1.920656   12.789191   -0.062808      1.00       1.0079
     114     2 H    1    4.371010   11.347776    3.448335      1.00       1.0079
     115     2 H    1    8.164986    7.511560    5.510427      1.00       1.0079
     116     2 H    1    6.257476   12.833338    9.559739      1.00       1.0079
     117     2 H    1    6.444700   12.981244   -0.046934      1.00       1.0079
     118     2 H    1    8.053771   11.252376    3.451183      1.00       1.0079
     119     2 H    1    4.003440    6.784244    5.374606      1.00       1.0079
     120     2 H    1    2.154356   12.760842    9.019730      1.00       1.0079
     121     3 Ge  32    6.017827   10.346715    7.394647      4.00      72.6400
     122     3 Ge  32    7.898095    8.998427    8.219399      4.00      72.6400
     123     3 Ge  32    1.784724   10.174806    6.919252      4.00      72.6400
     124     3 Ge  32    3.864182    9.093027    7.715616      4.00      72.6400
     125     3 Ge  32    7.775845    6.924988    6.832551      4.00      72.6400
     126     3 Ge  32    6.234568   12.643690    8.011022      4.00      72.6400
     127     3 Ge  32    3.865317    6.877086    6.861418      4.00      72.6400
     128     3 Ge  32    2.062832   12.600941    7.490501      4.00      72.6400




 SCF PARAMETERS         Density guess:                                   RESTART
                        --------------------------------------------------------
                        max_scf:                                              50
                        max_scf_history:                                       0
                        max_diis:                                              4
                        --------------------------------------------------------
                        eps_scf:                                        1.00E-06
                        eps_scf_history:                                0.00E+00
                        eps_diis:                                       1.00E-01
                        eps_eigval:                                     1.00E-05
                        --------------------------------------------------------
                        level_shift [a.u.]:                                 0.00
                        added MOs                                        50    0
                        --------------------------------------------------------
                        Mixing method:                            BROYDEN_MIXING
                                                charge density mixing in g-space
                        --------------------------------------------------------
                        No outer SCF

 PW_GRID| Information for grid number                                          1
 PW_GRID| Grid distributed over                                    40 processors
 PW_GRID| Real space group dimensions                                    40    1
 PW_GRID| the grid is blocked:                                                NO
 PW_GRID| Cutoff [a.u.]                                                    250.0
 PW_GRID| spherical cutoff:                                                   NO
 PW_GRID|   Bounds   1           -108     107                Points:         216
 PW_GRID|   Bounds   2           -108     107                Points:         216
 PW_GRID|   Bounds   3           -202     202                Points:         405
 PW_GRID| Volume element (a.u.^3)  0.2336E-02     Volume (a.u.^3)     44134.1676
 PW_GRID| Grid span                                                    FULLSPACE
 PW_GRID|   Distribution                         Average         Max         Min
 PW_GRID|   G-Vectors                           472392.0      472392      472392
 PW_GRID|   G-Rays                                2187.0        2187        2187
 PW_GRID|   Real Space Points                   472392.0      524880      437400

 PW_GRID| Information for grid number                                          2
 PW_GRID| Number of the reference grid                                         1
 PW_GRID| Grid distributed over                                    40 processors
 PW_GRID| Real space group dimensions                                    40    1
 PW_GRID| the grid is blocked:                                                NO
 PW_GRID| Cutoff [a.u.]                                                     83.3
 PW_GRID| spherical cutoff:                                                   NO
 PW_GRID|   Bounds   1            -62      62                Points:         125
 PW_GRID|   Bounds   2            -62      62                Points:         125
 PW_GRID|   Bounds   3           -120     119                Points:         240
 PW_GRID| Volume element (a.u.^3)  0.1177E-01     Volume (a.u.^3)     44134.1676
 PW_GRID| Grid span                                                    FULLSPACE
 PW_GRID|   Distribution                         Average         Max         Min
 PW_GRID|   G-Vectors                            93750.0       94250       92750
 PW_GRID|   G-Rays                                 750.0         754         742
 PW_GRID|   Real Space Points                    93750.0      120000       90000

 PW_GRID| Information for grid number                                          3
 PW_GRID| Number of the reference grid                                         1
 PW_GRID| Grid distributed over                                    40 processors
 PW_GRID| Real space group dimensions                                    40    1
 PW_GRID| the grid is blocked:                                                NO
 PW_GRID| Cutoff [a.u.]                                                     27.8
 PW_GRID| spherical cutoff:                                                   NO
 PW_GRID|   Bounds   1            -36      35                Points:          72
 PW_GRID|   Bounds   2            -36      35                Points:          72
 PW_GRID|   Bounds   3            -67      67                Points:         135
 PW_GRID| Volume element (a.u.^3)  0.6306E-01     Volume (a.u.^3)     44134.1676
 PW_GRID| Grid span                                                    FULLSPACE
 PW_GRID|   Distribution                         Average         Max         Min
 PW_GRID|   G-Vectors                            17496.0       17784       17208
 PW_GRID|   G-Rays                                 243.0         247         239
 PW_GRID|   Real Space Points                    17496.0       19440        9720

 PW_GRID| Information for grid number                                          4
 PW_GRID| Number of the reference grid                                         1
 PW_GRID| Grid distributed over                                    40 processors
 PW_GRID| Real space group dimensions                                    40    1
 PW_GRID| the grid is blocked:                                                NO
 PW_GRID| Cutoff [a.u.]                                                      9.3
 PW_GRID| spherical cutoff:                                                   NO
 PW_GRID|   Bounds   1            -22      22                Points:          45
 PW_GRID|   Bounds   2            -22      22                Points:          45
 PW_GRID|   Bounds   3            -40      39                Points:          80
 PW_GRID| Volume element (a.u.^3)  0.2724         Volume (a.u.^3)     44134.1676
 PW_GRID| Grid span                                                    FULLSPACE
 PW_GRID|   Distribution                         Average         Max         Min
 PW_GRID|   G-Vectors                             4050.0        4320        3690
 PW_GRID|   G-Rays                                  90.0          96          82
 PW_GRID|   Real Space Points                     4050.0        7200        3600

 PW_GRID| Information for grid number                                          5
 PW_GRID| Number of the reference grid                                         1
 PW_GRID| Grid distributed over                                    40 processors
 PW_GRID| Real space group dimensions                                     5    8
 PW_GRID| the grid is blocked:                                                NO
 PW_GRID| Cutoff [a.u.]                                                      3.1
 PW_GRID| spherical cutoff:                                                   NO
 PW_GRID|   Bounds   1            -12      11                Points:          24
 PW_GRID|   Bounds   2            -12      11                Points:          24
 PW_GRID|   Bounds   3            -22      22                Points:          45
 PW_GRID| Volume element (a.u.^3)   1.703         Volume (a.u.^3)     44134.1676
 PW_GRID| Grid span                                                    FULLSPACE
 PW_GRID|   Distribution                         Average         Max         Min
 PW_GRID|   G-Vectors                              648.0         696         600
 PW_GRID|   G-Rays                                  27.0          29          25
 PW_GRID|   Real Space Points                      648.0         675         540

 PW_GRID| Information for grid number                                          6
 PW_GRID| Number of the reference grid                                         1
 PW_GRID| Grid distributed over                                    40 processors
 PW_GRID| Real space group dimensions                                     5    8
 PW_GRID| the grid is blocked:                                                NO
 PW_GRID| Cutoff [a.u.]                                                      1.0
 PW_GRID| spherical cutoff:                                                   NO
 PW_GRID|   Bounds   1             -7       7                Points:          15
 PW_GRID|   Bounds   2             -7       7                Points:          15
 PW_GRID|   Bounds   3            -12      12                Points:          25
 PW_GRID| Volume element (a.u.^3)   7.846         Volume (a.u.^3)     44134.1676
 PW_GRID| Grid span                                                    FULLSPACE
 PW_GRID|   Distribution                         Average         Max         Min
 PW_GRID|   G-Vectors                              140.6         195         105
 PW_GRID|   G-Rays                                   9.4          13           7
 PW_GRID|   Real Space Points                      140.6         150          75

 PW_GRID| Information for grid number                                          7
 PW_GRID| Number of the reference grid                                         1
 PW_GRID| Grid distributed over                                    40 processors
 PW_GRID| Real space group dimensions                                     5    8
 PW_GRID| the grid is blocked:                                                NO
 PW_GRID| Cutoff [a.u.]                                                      0.3
 PW_GRID| spherical cutoff:                                                   NO
 PW_GRID|   Bounds   1             -4       3                Points:           8
 PW_GRID|   Bounds   2             -4       3                Points:           8
 PW_GRID|   Bounds   3             -7       7                Points:          15
 PW_GRID| Volume element (a.u.^3)   45.97         Volume (a.u.^3)     44134.1676
 PW_GRID| Grid span                                                    FULLSPACE
 PW_GRID|   Distribution                         Average         Max         Min
 PW_GRID|   G-Vectors                               24.0          48          16
 PW_GRID|   G-Rays                                   3.0           6           2
 PW_GRID|   Real Space Points                       24.0          30          15

 PW_GRID| Information for grid number                                          8
 PW_GRID| Number of the reference grid                                         1
 PW_GRID| Grid distributed over                                    40 processors
 PW_GRID| Real space group dimensions                                     5    8
 PW_GRID| the grid is blocked:                                                NO
 PW_GRID| Cutoff [a.u.]                                                      0.1
 PW_GRID| spherical cutoff:                                                   NO
 PW_GRID|   Bounds   1             -3       2                Points:           6
 PW_GRID|   Bounds   2             -3       2                Points:           6
 PW_GRID|   Bounds   3             -4       4                Points:           9
 PW_GRID| Volume element (a.u.^3)   136.2         Volume (a.u.^3)     44134.1676
 PW_GRID| Grid span                                                    FULLSPACE
 PW_GRID|   Distribution                         Average         Max         Min
 PW_GRID|   G-Vectors                                8.1          18           0
 PW_GRID|   G-Rays                                   1.4           3           0
 PW_GRID|   Real Space Points                        8.1          18           0

 PW_GRID| Information for grid number                                          9
 PW_GRID| Number of the reference grid                                         1
 PW_GRID| Grid distributed over                                    40 processors
 PW_GRID| Real space group dimensions                                     5    8
 PW_GRID| the grid is blocked:                                                NO
 PW_GRID| Cutoff [a.u.]                                                      0.0
 PW_GRID| spherical cutoff:                                                   NO
 PW_GRID|   Bounds   1             -2       1                Points:           4
 PW_GRID|   Bounds   2             -2       1                Points:           4
 PW_GRID|   Bounds   3             -3       2                Points:           6
 PW_GRID| Volume element (a.u.^3)   459.7         Volume (a.u.^3)     44134.1676
 PW_GRID| Grid span                                                    FULLSPACE
 PW_GRID|   Distribution                         Average         Max         Min
 PW_GRID|   G-Vectors                                2.4           4           0
 PW_GRID|   G-Rays                                   0.6           1           0
 PW_GRID|   Real Space Points                        2.4           6           0

 PW_GRID| Information for grid number                                         10
 PW_GRID| Number of the reference grid                                         1
 PW_GRID| Grid distributed over                                    40 processors
 PW_GRID| Real space group dimensions                                     5    8
 PW_GRID| the grid is blocked:                                                NO
 PW_GRID| Cutoff [a.u.]                                                      0.0
 PW_GRID| spherical cutoff:                                                   NO
 PW_GRID|   Bounds   1             -1       0                Points:           2
 PW_GRID|   Bounds   2             -1       0                Points:           2
 PW_GRID|   Bounds   3             -2       1                Points:           4
 PW_GRID| Volume element (a.u.^3)   2758.         Volume (a.u.^3)     44134.1676
 PW_GRID| Grid span                                                    FULLSPACE
 PW_GRID|   Distribution                         Average         Max         Min
 PW_GRID|   G-Vectors                                0.4           2           0
 PW_GRID|   G-Rays                                   0.2           1           0
 PW_GRID|   Real Space Points                        0.4           4           0

 PW_GRID| Information for grid number                                         11
 PW_GRID| Number of the reference grid                                         1
 PW_GRID| Grid distributed over                                    40 processors
 PW_GRID| Real space group dimensions                                     5    8
 PW_GRID| the grid is blocked:                                                NO
 PW_GRID| Cutoff [a.u.]                                                      0.0
 PW_GRID| spherical cutoff:                                                   NO
 PW_GRID|   Bounds   1             -1       0                Points:           2
 PW_GRID|   Bounds   2             -1       0                Points:           2
 PW_GRID|   Bounds   3             -1       0                Points:           2
 PW_GRID| Volume element (a.u.^3)   5517.         Volume (a.u.^3)     44134.1676
 PW_GRID| Grid span                                                    FULLSPACE
 PW_GRID|   Distribution                         Average         Max         Min
 PW_GRID|   G-Vectors                                0.2           2           0
 PW_GRID|   G-Rays                                   0.1           1           0
 PW_GRID|   Real Space Points                        0.2           2           0

 PW_GRID| Information for grid number                                         12
 PW_GRID| Number of the reference grid                                         1
 PW_GRID| Grid distributed over                                    40 processors
 PW_GRID| Real space group dimensions                                     5    8
 PW_GRID| the grid is blocked:                                                NO
 PW_GRID| Cutoff [a.u.]                                                      0.0
 PW_GRID| spherical cutoff:                                                   NO
 PW_GRID|   Bounds   1             -1       0                Points:           2
 PW_GRID|   Bounds   2             -1       0                Points:           2
 PW_GRID|   Bounds   3             -1       0                Points:           2
 PW_GRID| Volume element (a.u.^3)   5517.         Volume (a.u.^3)     44134.1676
 PW_GRID| Grid span                                                    FULLSPACE
 PW_GRID|   Distribution                         Average         Max         Min
 PW_GRID|   G-Vectors                                0.2           2           0
 PW_GRID|   G-Rays                                   0.1           1           0
 PW_GRID|   Real Space Points                        0.2           2           0

 PW_GRID| Information for grid number                                         13
 PW_GRID| Number of the reference grid                                         1
 PW_GRID| Grid distributed over                                    40 processors
 PW_GRID| Real space group dimensions                                     5    8
 PW_GRID| the grid is blocked:                                                NO
 PW_GRID| Cutoff [a.u.]                                                      0.0
 PW_GRID| spherical cutoff:                                                   NO
 PW_GRID|   Bounds   1             -1       0                Points:           2
 PW_GRID|   Bounds   2             -1       0                Points:           2
 PW_GRID|   Bounds   3             -1       0                Points:           2
 PW_GRID| Volume element (a.u.^3)   5517.         Volume (a.u.^3)     44134.1676
 PW_GRID| Grid span                                                    FULLSPACE
 PW_GRID|   Distribution                         Average         Max         Min
 PW_GRID|   G-Vectors                                0.2           2           0
 PW_GRID|   G-Rays                                   0.1           1           0
 PW_GRID|   Real Space Points                        0.2           2           0

 PW_GRID| Information for grid number                                         14
 PW_GRID| Number of the reference grid                                         1
 PW_GRID| Grid distributed over                                    40 processors
 PW_GRID| Real space group dimensions                                     5    8
 PW_GRID| the grid is blocked:                                                NO
 PW_GRID| Cutoff [a.u.]                                                      0.0
 PW_GRID| spherical cutoff:                                                   NO
 PW_GRID|   Bounds   1             -1       0                Points:           2
 PW_GRID|   Bounds   2             -1       0                Points:           2
 PW_GRID|   Bounds   3             -1       0                Points:           2
 PW_GRID| Volume element (a.u.^3)   5517.         Volume (a.u.^3)     44134.1676
 PW_GRID| Grid span                                                    FULLSPACE
 PW_GRID|   Distribution                         Average         Max         Min
 PW_GRID|   G-Vectors                                0.2           2           0
 PW_GRID|   G-Rays                                   0.1           1           0
 PW_GRID|   Real Space Points                        0.2           2           0

 PW_GRID| Information for grid number                                         15
 PW_GRID| Number of the reference grid                                         1
 PW_GRID| Grid distributed over                                    40 processors
 PW_GRID| Real space group dimensions                                     5    8
 PW_GRID| the grid is blocked:                                                NO
 PW_GRID| Cutoff [a.u.]                                                      0.0
 PW_GRID| spherical cutoff:                                                   NO
 PW_GRID|   Bounds   1             -1       0                Points:           2
 PW_GRID|   Bounds   2             -1       0                Points:           2
 PW_GRID|   Bounds   3             -1       0                Points:           2
 PW_GRID| Volume element (a.u.^3)   5517.         Volume (a.u.^3)     44134.1676
 PW_GRID| Grid span                                                    FULLSPACE
 PW_GRID|   Distribution                         Average         Max         Min
 PW_GRID|   G-Vectors                                0.2           2           0
 PW_GRID|   G-Rays                                   0.1           1           0
 PW_GRID|   Real Space Points                        0.2           2           0

 PW_GRID| Information for grid number                                         16
 PW_GRID| Number of the reference grid                                         1
 PW_GRID| Grid distributed over                                    40 processors
 PW_GRID| Real space group dimensions                                     5    8
 PW_GRID| the grid is blocked:                                                NO
 PW_GRID| Cutoff [a.u.]                                                      0.0
 PW_GRID| spherical cutoff:                                                   NO
 PW_GRID|   Bounds   1             -1       0                Points:           2
 PW_GRID|   Bounds   2             -1       0                Points:           2
 PW_GRID|   Bounds   3             -1       0                Points:           2
 PW_GRID| Volume element (a.u.^3)   5517.         Volume (a.u.^3)     44134.1676
 PW_GRID| Grid span                                                    FULLSPACE
 PW_GRID|   Distribution                         Average         Max         Min
 PW_GRID|   G-Vectors                                0.2           2           0
 PW_GRID|   G-Rays                                   0.1           1           0
 PW_GRID|   Real Space Points                        0.2           2           0

 POISSON| Solver                                                        PERIODIC
 POISSON| Periodicity                                                        XYZ

 RS_GRID| Information for grid number                                          1
 RS_GRID|   Bounds   1           -108     107                Points:         216
 RS_GRID|   Bounds   2           -108     107                Points:         216
 RS_GRID|   Bounds   3           -202     202                Points:         405
 RS_GRID| Real space distribution over                                  5 groups
 RS_GRID| Real space distribution along direction                              2
 RS_GRID| Border size                                                         53
 RS_GRID| Real space distribution over                                  8 groups
 RS_GRID| Real space distribution along direction                              3
 RS_GRID| Border size                                                         53
 RS_GRID|   Distribution                         Average         Max         Min
 RS_GRID|   Planes                                 149.2         150         149
 RS_GRID|   Distribution                         Average         Max         Min
 RS_GRID|   Planes                                 156.6         157         156

 RS_GRID| Information for grid number                                          2
 RS_GRID|   Bounds   1            -62      62                Points:         125
 RS_GRID|   Bounds   2            -62      62                Points:         125
 RS_GRID|   Bounds   3           -120     119                Points:         240
 RS_GRID| Real space distribution over                                  5 groups
 RS_GRID| Real space distribution along direction                              2
 RS_GRID| Border size                                                         41
 RS_GRID| Real space distribution over                                  8 groups
 RS_GRID| Real space distribution along direction                              3
 RS_GRID| Border size                                                         41
 RS_GRID|   Distribution                         Average         Max         Min
 RS_GRID|   Planes                                 107.0         107         107
 RS_GRID|   Distribution                         Average         Max         Min
 RS_GRID|   Planes                                 112.0         112         112

 RS_GRID| Information for grid number                                          3
 RS_GRID|   Bounds   1            -36      35                Points:          72
 RS_GRID|   Bounds   2            -36      35                Points:          72
 RS_GRID|   Bounds   3            -67      67                Points:         135
 RS_GRID| Real space fully replicated
 RS_GRID| Group size                                                           1

 RS_GRID| Information for grid number                                          4
 RS_GRID|   Bounds   1            -22      22                Points:          45
 RS_GRID|   Bounds   2            -22      22                Points:          45
 RS_GRID|   Bounds   3            -40      39                Points:          80
 RS_GRID| Real space fully replicated
 RS_GRID| Group size                                                           1

 RS_GRID| Information for grid number                                          5
 RS_GRID|   Bounds   1            -12      11                Points:          24
 RS_GRID|   Bounds   2            -12      11                Points:          24
 RS_GRID|   Bounds   3            -22      22                Points:          45
 RS_GRID| Real space fully replicated
 RS_GRID| Group size                                                           1

 RS_GRID| Information for grid number                                          6
 RS_GRID|   Bounds   1             -7       7                Points:          15
 RS_GRID|   Bounds   2             -7       7                Points:          15
 RS_GRID|   Bounds   3            -12      12                Points:          25
 RS_GRID| Real space fully replicated
 RS_GRID| Group size                                                           1

 RS_GRID| Information for grid number                                          7
 RS_GRID|   Bounds   1             -4       3                Points:           8
 RS_GRID|   Bounds   2             -4       3                Points:           8
 RS_GRID|   Bounds   3             -7       7                Points:          15
 RS_GRID| Real space fully replicated
 RS_GRID| Group size                                                           1

 RS_GRID| Information for grid number                                          8
 RS_GRID|   Bounds   1             -3       2                Points:           6
 RS_GRID|   Bounds   2             -3       2                Points:           6
 RS_GRID|   Bounds   3             -4       4                Points:           9
 RS_GRID| Real space fully replicated
 RS_GRID| Group size                                                           1

 RS_GRID| Information for grid number                                          9
 RS_GRID|   Bounds   1             -2       1                Points:           4
 RS_GRID|   Bounds   2             -2       1                Points:           4
 RS_GRID|   Bounds   3             -3       2                Points:           6
 RS_GRID| Real space fully replicated
 RS_GRID| Group size                                                           1

 RS_GRID| Information for grid number                                         10
 RS_GRID|   Bounds   1             -1       0                Points:           2
 RS_GRID|   Bounds   2             -1       0                Points:           2
 RS_GRID|   Bounds   3             -2       1                Points:           4
 RS_GRID| Real space fully replicated
 RS_GRID| Group size                                                           1

 RS_GRID| Information for grid number                                         11
 RS_GRID|   Bounds   1             -1       0                Points:           2
 RS_GRID|   Bounds   2             -1       0                Points:           2
 RS_GRID|   Bounds   3             -1       0                Points:           2
 RS_GRID| Real space fully replicated
 RS_GRID| Group size                                                           1

 RS_GRID| Information for grid number                                         12
 RS_GRID|   Bounds   1             -1       0                Points:           2
 RS_GRID|   Bounds   2             -1       0                Points:           2
 RS_GRID|   Bounds   3             -1       0                Points:           2
 RS_GRID| Real space fully replicated
 RS_GRID| Group size                                                           1

 RS_GRID| Information for grid number                                         13
 RS_GRID|   Bounds   1             -1       0                Points:           2
 RS_GRID|   Bounds   2             -1       0                Points:           2
 RS_GRID|   Bounds   3             -1       0                Points:           2
 RS_GRID| Real space fully replicated
 RS_GRID| Group size                                                           1

 RS_GRID| Information for grid number                                         14
 RS_GRID|   Bounds   1             -1       0                Points:           2
 RS_GRID|   Bounds   2             -1       0                Points:           2
 RS_GRID|   Bounds   3             -1       0                Points:           2
 RS_GRID| Real space fully replicated
 RS_GRID| Group size                                                           1

 RS_GRID| Information for grid number                                         15
 RS_GRID|   Bounds   1             -1       0                Points:           2
 RS_GRID|   Bounds   2             -1       0                Points:           2
 RS_GRID|   Bounds   3             -1       0                Points:           2
 RS_GRID| Real space fully replicated
 RS_GRID| Group size                                                           1

 RS_GRID| Information for grid number                                         16
 RS_GRID|   Bounds   1             -1       0                Points:           2
 RS_GRID|   Bounds   2             -1       0                Points:           2
 RS_GRID|   Bounds   3             -1       0                Points:           2
 RS_GRID| Real space fully replicated
 RS_GRID| Group size                                                           1

 Number of electrons:                                                        320
 Number of occupied orbitals:                                                160
 Number of molecular orbitals:                                               210

 Number of orbital functions:                                               1152
 Number of independent orbital functions:                                   1152

 Extrapolation method: initial_guess

 *** WARNING in qs_initial_guess.F:280 :: User requested to restart the    ***
 *** wavefunction from the file named: Diag_libra-2003-RESTART.wfn. This   ***
 *** file does not exist. Please check the existence of the file or change ***
 *** properly the value of the keyword WFN_RESTART_FILE_NAME. Calculation  ***
 *** continues using ATOMIC GUESS.                                         ***


 Atomic guess: The first density matrix is obtained in terms of atomic orbitals
               and electronic configurations assigned to each atomic kind

 Guess for atomic kind: Si

 Electronic structure
    Total number of core electrons                                         10.00
    Total number of valence electrons                                       4.00
    Total number of electrons                                              14.00
    Multiplicity                                                   not specified
    S   [  2.00  2.00] 2.00
    P   [  6.00] 2.00
 

 *******************************************************************************
                  Iteration          Convergence                     Energy [au]
 *******************************************************************************
                          1        0.526541E-01                  -3.659692963728
                          2        0.125823E-01                  -3.661785675622
                          3        0.408986E-04                  -3.661911567360
                          4        0.675570E-07                  -3.661911568709

 Energy components [Hartree]           Total Energy ::           -3.661911568709
                                        Band Energy ::           -0.941881516273
                                     Kinetic Energy ::            1.409736465412
                                   Potential Energy ::           -5.071648034121
                                      Virial (-V/T) ::            3.597585902439
                                        Core Energy ::           -5.690149137281
                                          XC Energy ::           -0.992569238249
                                     Coulomb Energy ::            3.020806806821
                       Total Pseudopotential Energy ::           -7.143143335066
                       Local Pseudopotential Energy ::           -8.006124475851
                    Nonlocal Pseudopotential Energy ::            0.862981140786
                                        Confinement ::            0.432577323720

 Orbital energies  State     L     Occupation   Energy[a.u.]          Energy[eV]

                       1     0          2.000      -0.357276           -9.721984
 
                       1     1          2.000      -0.113664           -3.092965
 

 Total Electron Density at R=0:                                         0.000026

 Guess for atomic kind: H

 Electronic structure
    Total number of core electrons                                          0.00
    Total number of valence electrons                                       1.00
    Total number of electrons                                               1.00
    Multiplicity                                                   not specified
    S      1.00
 

 *******************************************************************************
                  Iteration          Convergence                     Energy [au]
 *******************************************************************************
                          1        0.250972E-02                  -0.375256815885
                          2        0.570752E-04                  -0.375258666164
                          3        0.832405E-09                  -0.375258667122

 Energy components [Hartree]           Total Energy ::           -0.375258667122
                                        Band Energy ::           -0.076317618391
                                     Kinetic Energy ::            0.771356566341
                                   Potential Energy ::           -1.146615233463
                                      Virial (-V/T) ::            1.486491829455
                                        Core Energy ::           -0.456090715790
                                          XC Energy ::           -0.314218627334
                                     Coulomb Energy ::            0.395050676003
                       Total Pseudopotential Energy ::           -1.238482237174
                       Local Pseudopotential Energy ::           -1.238482237174
                    Nonlocal Pseudopotential Energy ::            0.000000000000
                                        Confinement ::            0.110349550431

 Orbital energies  State     L     Occupation   Energy[a.u.]          Energy[eV]

                       1     0          1.000      -0.076318           -2.076708
 

 Total Electron Density at R=0:                                         0.425022

 Guess for atomic kind: Ge

 Electronic structure
    Total number of core electrons                                         28.00
    Total number of valence electrons                                       4.00
    Total number of electrons                                              32.00
    Multiplicity                                                   not specified
    S   [  2.00  2.00  2.00] 2.00
    P   [  6.00  6.00] 2.00
    D   [ 10.00]
 

 *******************************************************************************
                  Iteration          Convergence                     Energy [au]
 *******************************************************************************
[...]
 TDDFPT|     10       1.29634  -7.7913E-02  1.0201E+00 -6.4015E-03   3.32425E-02
 TDDFPT|     11       1.31668   1.5457E+01  3.6786E-01  2.4795E-02   7.71167E+00
 TDDFPT|     12       1.32951   3.9604E-01  1.3994E-01 -3.4206E-02   5.78486E-03
 TDDFPT|     13       1.43988   5.7598E-02 -5.5799E-02 -3.0074E-02   2.58768E-04
 TDDFPT|     14       1.45202  -1.0966E+00 -1.5307E-01 -1.2958E-02   4.36153E-02
 TDDFPT|     15       1.47615   1.9005E-01 -8.0973E-01 -7.3000E-03   2.50205E-02
 TDDFPT|     16       1.48516  -9.0339E-02  2.1484E-02  5.5815E-03   3.14878E-04
 TDDFPT|     17       1.52608   9.7989E-02 -6.9467E-01 -7.3208E-03   1.84033E-02
 TDDFPT|     18       1.55158  -5.1680E-01  2.6653E+00  4.1291E-03   2.80191E-01
 TDDFPT|     19       1.59601   1.5179E-01 -5.0836E-02  1.9780E-03   1.00211E-03
 TDDFPT|     20       1.63023  -5.5196E-01 -5.0797E-01  1.2581E-02   2.24800E-02

 Excitation analysis

   State        Occupied         Virtual        Excitation
   number        orbital         orbital        amplitude
 ---------------------------------------------------------
        1
                  160             161            -0.999810
        2
                  160             162            -0.999924
        3
                  160             163            -0.999644
        4
                  159             161            -0.999790
        5
                  160             164             0.998884
        6
                  159             162             0.999910
        7
                  160             165             0.998100
        8
                  159             163             0.999641
        9
                  159             164            -0.998920
       10
                  160             166             0.999869
       11
                  159             165            -0.997834
       12
                  160             167             0.999665
       13
                  160             168             0.999930
       14
                  159             166             0.999829
       15
                  160             169             0.995510
                  160             170            -0.072543
                  160             171             0.054372
       16
                  159             167             0.999872
       17
                  160             170             0.767820
                  160             171             0.640152
       18
                  160             171             0.761024
                  160             170            -0.630302
                  160             169            -0.084655
                  160             174             0.075084
                  160             172             0.068790
       19
                  159             168            -0.999819
       20
                  160             172            -0.934442
                  160             173             0.311523
                  159             169            -0.082224
                  159             170            -0.076265
                  160             174             0.071218
                  159             172             0.060323

 -------------------------------------------------------------------------------
 ----                             MULTIGRID INFO                            ----
 -------------------------------------------------------------------------------
 count for grid        1:        2293033          cutoff [a.u.]           50.00
 count for grid        2:         695498          cutoff [a.u.]           16.67
 count for grid        3:         204740          cutoff [a.u.]            5.56
 count for grid        4:              0          cutoff [a.u.]            1.85
 count for grid        5:              0          cutoff [a.u.]            0.62
 count for grid        6:              0          cutoff [a.u.]            0.21
 count for grid        7:              0          cutoff [a.u.]            0.07
 count for grid        8:              0          cutoff [a.u.]            0.02
 count for grid        9:              0          cutoff [a.u.]            0.01
 count for grid       10:              0          cutoff [a.u.]            0.00
 count for grid       11:              0          cutoff [a.u.]            0.00
 count for grid       12:              0          cutoff [a.u.]            0.00
 count for grid       13:              0          cutoff [a.u.]            0.00
 count for grid       14:              0          cutoff [a.u.]            0.00
 count for grid       15:              0          cutoff [a.u.]            0.00
 count for grid       16:              0          cutoff [a.u.]            0.00
 count for grid       17:              0          cutoff [a.u.]            0.00
 count for grid       18:              0          cutoff [a.u.]            0.00
 count for grid       19:              0          cutoff [a.u.]            0.00
 count for grid       20:              0          cutoff [a.u.]            0.00
 count for grid       21:              0          cutoff [a.u.]            0.00
 count for grid       22:              0          cutoff [a.u.]            0.00
 count for grid       23:              0          cutoff [a.u.]            0.00
 count for grid       24:              0          cutoff [a.u.]            0.00
 count for grid       25:              0          cutoff [a.u.]            0.00
 total gridlevel count  :        3193271

 ENERGY| Total FORCE_EVAL ( QS ) energy (a.u.):             -288.488920876106988


 -------------------------------------------------------------------------------
 -                                                                             -
 -                                DBCSR STATISTICS                             -
 -                                                                             -
 -------------------------------------------------------------------------------
 COUNTER                                    TOTAL       BLAS       SMM       ACC
 flops     5 x     5 x    18             46800000       0.0%    100.0%      0.0%
 flops     5 x    13 x    18            119808000       0.0%    100.0%      0.0%
 flops    13 x     5 x    18            119808000       0.0%    100.0%      0.0%
 flops    13 x    13 x    18            316368000       0.0%    100.0%      0.0%
 flops     5 x     5 x    32            499200000       0.0%    100.0%      0.0%
 flops     5 x    13 x    32           1277952000       0.0%    100.0%      0.0%
 flops    13 x     5 x    32           1277952000       0.0%    100.0%      0.0%
 flops    13 x    13 x    32           3374592000       0.0%    100.0%      0.0%
 flops     5 x    32 x     5          20853555200       0.0%    100.0%      0.0%
 flops     5 x    32 x    13          54219243520       0.0%    100.0%      0.0%
 flops    13 x    32 x     5          54219243520       0.0%    100.0%      0.0%
 flops    13 x    32 x    13         140970033152       0.0%    100.0%      0.0%
 flops inhomo. stacks                           0       0.0%      0.0%      0.0%
 flops total                       277.294555E+09       0.0%    100.0%      0.0%
 flops max/rank                     13.919886E+09       0.0%    100.0%      0.0%
 matmuls inhomo. stacks                         0       0.0%      0.0%      0.0%
 matmuls total                           53578688       0.0%    100.0%      0.0%
 number of processed stacks               1032800       0.0%    100.0%      0.0%
 average stack size                                     0.0      51.9       0.0
 marketing flops                   280.878907E+09
 -------------------------------------------------------------------------------
 # multiplications                            651
 max memory usage/rank             710.213632E+06
 # max total images/rank                        5
 # max 3D layers                                1
 # MPI messages exchanged                  859320
 MPI messages size (bytes):
  total size                        63.210693E+09
  min size                           0.000000E+00
  max size                         177.000000E+03
  average size                      73.558969E+03
 MPI breakdown and total messages size (bytes):
             size <=      128              208650                        0
       128 < size <=     8192                   0                        0
      8192 < size <=    32768              192450               2905528320
     32768 < size <=   131072              232860              28113315840
    131072 < size <=  4194304              225360              32192225280
   4194304 < size <= 16777216                   0                        0
  16777216 < size                               0                        0
 -------------------------------------------------------------------------------

 *** WARNING in dbcsr_mm.F:295 :: Using a non-square number of MPI ranks ***
 *** might lead to poor performance. Used ranks: 40 Suggested: 36 81     ***

 -------------------------------------------------------------------------------
 -                                                                             -
 -                      DBCSR MESSAGE PASSING PERFORMANCE                      -
 -                                                                             -
 -------------------------------------------------------------------------------
 ROUTINE             CALLS      AVE VOLUME [Bytes]
 MP_Group              657
 MP_Bcast               13                     12.
 MP_Allreduce         2097                      8.
 MP_Alltoall         16141                  33450.
 MP_Wait             46872
 MP_ISend            49426                  36477.
 MP_IRecv            51980                  34204.
 MP_Memory           81070
 -------------------------------------------------------------------------------
 
 MEMORY| Estimated peak process memory [MiB]                                 678

 -------------------------------------------------------------------------------
 ----                             MULTIGRID INFO                            ----
 -------------------------------------------------------------------------------
 count for grid        1:         596009          cutoff [a.u.]          250.00
 count for grid        2:         693758          cutoff [a.u.]           83.33
 count for grid        3:         493091          cutoff [a.u.]           27.78
 count for grid        4:         293293          cutoff [a.u.]            9.26
 count for grid        5:           8320          cutoff [a.u.]            3.09
 count for grid        6:              0          cutoff [a.u.]            1.03
 count for grid        7:              0          cutoff [a.u.]            0.34
 count for grid        8:              0          cutoff [a.u.]            0.11
 count for grid        9:              0          cutoff [a.u.]            0.04
 count for grid       10:              0          cutoff [a.u.]            0.01
 count for grid       11:              0          cutoff [a.u.]            0.00
 count for grid       12:              0          cutoff [a.u.]            0.00
 count for grid       13:              0          cutoff [a.u.]            0.00
 count for grid       14:              0          cutoff [a.u.]            0.00
 count for grid       15:              0          cutoff [a.u.]            0.00
 count for grid       16:              0          cutoff [a.u.]            0.00
 total gridlevel count  :        2084471

 -------------------------------------------------------------------------------
 -                                                                             -
 -                         MESSAGE PASSING PERFORMANCE                         -
 -                                                                             -
 -------------------------------------------------------------------------------

 ROUTINE             CALLS      AVE VOLUME [Bytes]
 MP_Group               41
 MP_Bcast              160                3510034.
 MP_Allreduce        19742                    329.
 MP_Sync             13936
 MP_Alltoall         20383                1610662.
 MP_ISendRecv       328302                   5991.
 MP_Wait            371232
 MP_comm_split          35
 MP_ISend            39579                 121359.
 MP_IRecv            40453                 118747.
 MP_Recv               198                 151645.
 -------------------------------------------------------------------------------


 -------------------------------------------------------------------------------
 -                                                                             -
 -                           R E F E R E N C E S                               -
 -                                                                             -
 -------------------------------------------------------------------------------
 
 CP2K version 7.1, the CP2K developers group (2019).
 CP2K is freely available from https://www.cp2k.org/ .

 Schuett, Ole; Messmer, Peter; Hutter, Juerg; VandeVondele, Joost. 
 Electronic Structure Calculations on Graphics Processing Units, John
 Wiley & Sons, Ltd, 173-190 (2016). 
 GPU-Accelerated Sparse Matrix-Matrix Multiplication for
 Linear Scaling Density Functional Theory.
 https://dx.doi.org/10.1002/9781118670712.ch8

 Borstnik, U; VandeVondele, J; Weber, V; Hutter, J. 
 PARALLEL COMPUTING, 40 (5-6), 47-58 (2014). 
 Sparse matrix multiplication: The distributed block-compressed sparse
 row library.
 https://dx.doi.org/10.1016/j.parco.2014.03.012

 Hutter, J; Iannuzzi, M; Schiffmann, F; VandeVondele, J. 
 WIREs Comput Mol Sci., 4 (1), 15-25 (2014). 
 CP2K: atomistic simulations of condensed matter systems.
 https://dx.doi.org/10.1002/wcms.1159

 Grimme, S; Ehrlich, S; Goerigk, L. 
 JOURNAL OF COMPUTATIONAL CHEMISTRY, 32, 1456 (2011). 
 Effect of the damping function in dispersion corrected density functional theory.
 https://dx.doi.org/10.1002/jcc.21759

 Grimme, S; Antony, J; Ehrlich, S; Krieg, H. 
 JOURNAL OF CHEMICAL PHYSICS, 132 (15), 154104 (2010). 
 A consistent and accurate ab initio parametrization of density
 functional dispersion correction (DFT-D) for the 94 elements H-Pu.
 https://dx.doi.org/10.1063/1.3382344

 VandeVondele, J; Hutter, J. 
 JOURNAL OF CHEMICAL PHYSICS, 127 (11), 114105 (2007). 
 Gaussian basis sets for accurate calculations on molecular systems in
 gas and condensed phases.
 https://dx.doi.org/10.1063/1.2770708

 Krack, M. 
 THEORETICAL CHEMISTRY ACCOUNTS, 114 (1-3), 145-152 (2005). 
 Pseudopotentials for H to Kr optimized for gradient-corrected
 exchange-correlation functionals.
 https://dx.doi.org/10.1007/s00214-005-0655-y

 VandeVondele, J; Krack, M; Mohamed, F; Parrinello, M; Chassaing, T;
 Hutter, J. COMPUTER PHYSICS COMMUNICATIONS, 167 (2), 103-128 (2005). 
 QUICKSTEP: Fast and accurate density functional calculations using a
 mixed Gaussian and plane waves approach.
 https://dx.doi.org/10.1016/j.cpc.2004.12.014

 Frigo, M; Johnson, SG. 
 PROCEEDINGS OF THE IEEE, 93 (2), 216-231 (2005). 
 The design and implementation of FFTW3.
 https://dx.doi.org/10.1109/JPROC.2004.840301

 Iannuzzi, M; Chassaing, T; Wallman, T; Hutter, J. 
 CHIMIA, 59 (7-8), 499-503 (2005). 
 Ground and excited state density functional calculations with the
 Gaussian and augmented-plane-wave method.
 https://dx.doi.org/10.2533/000942905777676164

 Hartwigsen, C; Goedecker, S; Hutter, J. 
 PHYSICAL REVIEW B, 58 (7), 3641-3662 (1998). 
 Relativistic separable dual-space Gaussian pseudopotentials from H to Rn.
 https://dx.doi.org/10.1103/PhysRevB.58.3641

 Lippert, G; Hutter, J; Parrinello, M. 
 MOLECULAR PHYSICS, 92 (3), 477-487 (1997). 
 A hybrid Gaussian and plane wave density functional scheme.
 https://dx.doi.org/10.1080/002689797170220

 Perdew, JP; Burke, K; Ernzerhof, M. 
 PHYSICAL REVIEW LETTERS, 77 (18), 3865-3868 (1996). 
 Generalized gradient approximation made simple.
 https://dx.doi.org/10.1103/PhysRevLett.77.3865

 Goedecker, S; Teter, M; Hutter, J. 
 PHYSICAL REVIEW B, 54 (3), 1703-1710 (1996). 
 Separable dual-space Gaussian pseudopotentials.
 https://dx.doi.org/10.1103/PhysRevB.54.1703


 -------------------------------------------------------------------------------
 -                                                                             -
 -                                T I M I N G                                  -
 -                                                                             -
 -------------------------------------------------------------------------------
 SUBROUTINE                       CALLS  ASD         SELF TIME        TOTAL TIME
                                MAXIMUM       AVERAGE  MAXIMUM  AVERAGE  MAXIMUM
 CP2K                                 1  1.0    0.042    0.068  400.621  400.623
 qs_energies                          1  2.0    0.000    0.001  400.049  400.051
 qs_energies_properties               1  3.0    0.000    0.000  315.054  315.058
 tddfpt                               1  4.0    0.001    0.003  315.054  315.058
 tddfpt_davidson_solver               2  5.0    0.002    0.003  312.275  312.277
 tddfpt_compute_Aop_evects            8  6.0    0.014    0.046  307.875  307.877
 qs_rho_update_rho                  187  6.7    0.002    0.002  181.634  181.639
 calculate_rho_elec                 187  7.7   76.524  158.846  181.633  181.637
 integrate_v_rspace                 185  7.3   69.160  146.544  166.041  166.175
 rs_pw_transfer                    8842  9.5    0.024    0.027  106.185  129.000
 density_rs2pw                      187  8.7    0.026    0.027  102.320  125.041
 mp_waitany                       24204 11.5   90.552  113.912   90.552  113.912
 rs_pw_transfer_RS2PW_50            161 11.0    0.888    0.985   84.630  106.684
 mp_alltoall_d11v                  7295 10.4   81.433  101.946   81.433  101.946
 rs_distribute_matrix               372  8.5    0.215    0.562   81.266  101.591
 scf_env_do_scf                       1  3.0    0.000    0.001   81.078   81.081
 scf_env_do_scf_inner_loop           25  4.0    0.002    0.003   81.078   81.081
 qs_ks_update_qs_env                 25  5.0    0.000    0.001   43.761   43.771
 rebuild_ks_matrix                   25  6.0    0.000    0.000   43.746   43.754
 qs_ks_build_kohn_sham_matrix        25  7.0    0.006    0.014   43.746   43.754
 pw_transfer                      11227  9.4    0.637    0.689   34.966   35.336
 fft_wrap_pw1pw2                  10857 10.4    0.039    0.042   34.017   34.374
 fft3d_ps                         10857 12.4   11.200   12.256   27.270   27.881
 sum_up_and_integrate                25  8.0    0.162    0.216   24.024   24.028
 fft_wrap_pw1pw2_250                302 11.5    1.708    1.964   20.993   21.287
 qs_vxc_create                       25  8.0    0.001    0.001   16.897   16.991
 xc_vxc_pw_create                    25  9.0    0.198    0.234   16.896   16.991
 potential_pw2rs                    185  8.3    0.046    0.051   16.410   16.547
 mp_alltoall_z22v                 10857 14.4   10.288   11.820   10.288   11.820
 xc_rho_set_and_dset_create          26  9.9    0.093    0.107    8.811    9.183
 fft_wrap_pw1pw2_50                2086 10.8    0.636    0.711    8.737    8.784
 -------------------------------------------------------------------------------

 The number of warnings for this run is : 2
 
 -------------------------------------------------------------------------------
  **** **** ******  **  PROGRAM ENDED AT                 2024-10-12 10:02:06.099
 ***** ** ***  *** **   PROGRAM RAN ON                      nia0271.scinet.local
 **    ****   ******    PROGRAM RAN BY                                  ekadashi
 ***** **    ** ** **   PROGRAM PROCESS ID                                206684
  **** **  *******  **  PROGRAM STOPPED IN /gpfs/fs0/scratch/t/tzeng/ekadashi/Li
                                           bra_CP2K/SiGe_Hetero/step2/job1
