# Projected DOS for atomic kind H at iteration step i = 0, E(Fermi) =    -0.093755 a.u.
#     MO Eigenvalue [a.u.]      Occupation                 s                py                pz                px
       1         -0.558054        2.000000        0.11014902        0.00105414        0.07935248        0.00073358
       2         -0.545933        2.000000        0.15149104        0.00059846        0.11743433        0.00036862
       3         -0.536645        2.000000        0.09987295        0.00854839        0.07173059        0.00370091
       4         -0.535349        2.000000        0.10247435        0.00451320        0.07158118        0.00804195
       5         -0.530670        2.000000        0.10214138        0.00342242        0.07208589        0.00901066
       6         -0.529023        2.000000        0.11234151        0.00778899        0.06321055        0.00612943
       7         -0.527116        2.000000        0.10913433        0.01114352        0.06907794        0.00421252
       8         -0.526772        2.000000        0.10555112        0.00707017        0.08702987        0.00235782
       9         -0.523135        2.000000        0.11434060        0.00528493        0.07156131        0.00963129
      10         -0.521666        2.000000        0.10474970        0.00411633        0.08137746        0.00887960
      11         -0.520447        2.000000        0.11068046        0.00349250        0.08812360        0.00724327
      12         -0.518418        2.000000        0.11087078        0.00545757        0.08688922        0.00702085
      13         -0.515301        2.000000        0.11955219        0.00630797        0.08091972        0.00627656
      14         -0.512794        2.000000        0.11765617        0.01055828        0.07621395        0.00410061
      15         -0.490477        2.000000        0.10901675        0.01080216        0.05962610        0.00510142
      16         -0.488656        2.000000        0.10629468        0.00482532        0.05874727        0.01172025
      17         -0.484268        2.000000        0.11356415        0.00540468        0.05827796        0.00879758
      18         -0.483142        2.000000        0.11037814        0.00960143        0.05587109        0.00994385
      19         -0.482011        2.000000        0.11411842        0.00894108        0.05153773        0.00869951
      20         -0.480283        2.000000        0.10710979        0.00891717        0.06380574        0.00422263
      21         -0.479553        2.000000        0.11324805        0.00704417        0.05899913        0.00667488
      22         -0.478488        2.000000        0.11442037        0.00707928        0.05961905        0.00512585
      23         -0.477717        2.000000        0.11283023        0.00724184        0.05708977        0.00965543
      24         -0.476797        2.000000        0.11264278        0.00730176        0.06001461        0.00447470
      25         -0.475021        2.000000        0.11896955        0.00458362        0.05697546        0.00901451
      26         -0.473337        2.000000        0.11666540        0.00892869        0.05549891        0.00540165
      27         -0.472408        2.000000        0.11739903        0.00681822        0.05546263        0.00694681
      28         -0.470935        2.000000        0.11865549        0.00582314        0.05399368        0.00891420
      29         -0.470281        2.000000        0.12145143        0.01066287        0.05435283        0.00365913
      30         -0.468691        2.000000        0.11433066        0.00475857        0.06009485        0.01114241
      31         -0.467772        2.000000        0.11541059        0.00720794        0.05581748        0.00709057
      32         -0.463895        2.000000        0.12239004        0.00522751        0.05483695        0.00968796
      33         -0.422779        2.000000        0.17048580        0.00621810        0.03839676        0.01423101
      34         -0.419945        2.000000        0.17030102        0.00700863        0.03894807        0.01254272
      35         -0.418125        2.000000        0.17343744        0.01524733        0.03610059        0.00478943
      36         -0.413604        2.000000        0.18267901        0.00575363        0.03637486        0.00757553
      37         -0.412212        2.000000        0.17289597        0.00928169        0.03954055        0.00367031
      38         -0.410903        2.000000        0.17964477        0.00537799        0.04008111        0.00597242
      39         -0.410508        2.000000        0.16377568        0.00423032        0.03566645        0.00925744
      40         -0.409425        2.000000        0.17671552        0.00548647        0.04145438        0.00529294
      41         -0.406676        2.000000        0.18994635        0.00452023        0.03364292        0.00633286
      42         -0.406413        2.000000        0.18683230        0.00474806        0.04186809        0.00411841
      43         -0.403832        2.000000        0.19511641        0.00723174        0.03905136        0.00449591
      44         -0.403531        2.000000        0.18143253        0.00597903        0.04457470        0.00632246
      45         -0.402771        2.000000        0.19052437        0.00376738        0.03870093        0.00637078
      46         -0.402050        2.000000        0.19160897        0.00509761        0.03852485        0.00581916
      47         -0.401117        2.000000        0.19191798        0.00532646        0.03824044        0.00506720
      48         -0.399936        2.000000        0.18681260        0.00475834        0.03807275        0.00661690
      49         -0.398513        2.000000        0.18526395        0.00681036        0.04225035        0.00647488
      50         -0.396790        2.000000        0.19519168        0.00408947        0.03561971        0.00673953
      51         -0.385102        2.000000        0.30724008        0.00293853        0.02408385        0.00319692
      52         -0.380643        2.000000        0.31455340        0.00487021        0.02041517        0.00176686
      53         -0.378862        2.000000        0.31856201        0.00143178        0.01672825        0.00294366
      54         -0.376937        2.000000        0.31267751        0.00256122        0.01631374        0.00346622
      55         -0.375624        2.000000        0.31335495        0.00271071        0.01779479        0.00366905
      56         -0.373982        2.000000        0.30748909        0.00179210        0.01839151        0.00474713
      57         -0.372380        2.000000        0.31231564        0.00276536        0.02026365        0.00200164
      58         -0.366482        2.000000        0.30730263        0.00205783        0.03929138        0.00207088
      59         -0.365374        2.000000        0.29559742        0.00252902        0.04077508        0.00239298
      60         -0.363302        2.000000        0.29582092        0.00264438        0.04527866        0.00283152
      61         -0.362781        2.000000        0.30049044        0.00172166        0.04558574        0.00448233
      62         -0.362521        2.000000        0.29470313        0.00188447        0.04647530        0.00238514
      63         -0.358874        2.000000        0.29322350        0.00313840        0.04813956        0.00270785
      64         -0.352277        2.000000        0.30902640        0.00207305        0.04862168        0.00200270
      65         -0.280234        2.000000        0.23365536        0.00961467        0.00214924        0.02459536
      66         -0.279626        2.000000        0.23854153        0.00780418        0.00129593        0.02447733
      67         -0.276511        2.000000        0.22137902        0.02410906        0.00147100        0.00874710
      68         -0.273503        2.000000        0.21409614        0.01437277        0.00577051        0.02586253
      69         -0.270905        2.000000        0.20456640        0.01882953        0.00490148        0.02145925
      70         -0.269463        2.000000        0.20839694        0.01927973        0.00527130        0.02191729
      71         -0.267394        2.000000        0.20069032        0.01769791        0.00332555        0.01926017
      72         -0.265765        2.000000        0.23102143        0.01627052        0.00338568        0.02176489
      73         -0.264378        2.000000        0.22081557        0.01270081        0.00257878        0.02657236
      74         -0.262764        2.000000        0.20156831        0.01452892        0.00465649        0.02264818
      75         -0.262248        2.000000        0.23500388        0.02173711        0.00394903        0.00938477
      76         -0.261639        2.000000        0.20948652        0.01598398        0.00437504        0.02100227
      77         -0.258819        2.000000        0.22313569        0.01307470        0.00337370        0.01357963
      78         -0.256977        2.000000        0.21587217        0.01596124        0.00490126        0.01420007
      79         -0.256133        2.000000        0.22355214        0.01365253        0.00443835        0.01580215
      80         -0.255635        2.000000        0.26589878        0.01426952        0.00647796        0.01030114
      81         -0.254570        2.000000        0.20109475        0.01225577        0.00914820        0.01538751
      82         -0.253471        2.000000        0.24688972        0.01848035        0.00531675        0.01033149
      83         -0.252091        2.000000        0.20920845        0.02186008        0.00563242        0.01287960
      84         -0.251183        2.000000        0.24021151        0.01115092        0.00600194        0.01738128
      85         -0.250295        2.000000        0.23526331        0.01514876        0.00521438        0.01592541
      86         -0.250109        2.000000        0.23385023        0.01194332        0.00866537        0.01411428
      87         -0.249306        2.000000        0.20400243        0.01736979        0.00432238        0.01918410
      88         -0.248483        2.000000        0.19518443        0.01630048        0.00359529        0.01525438
      89         -0.247653        2.000000        0.21707693        0.01679998        0.00654409        0.02043522
      90         -0.247072        2.000000        0.22881809        0.01082034        0.00652403        0.01554484
      91         -0.246112        2.000000        0.24898449        0.01776315        0.00899543        0.01016552
      92         -0.245769        2.000000        0.18890118        0.01915127        0.00871967        0.01637227
      93         -0.244487        2.000000        0.20352805        0.01519458        0.00772532        0.02168781
      94         -0.243594        2.000000        0.27270636        0.00864382        0.00874225        0.01743622
      95         -0.243288        2.000000        0.20115973        0.01526218        0.00661774        0.01428252
      96         -0.242458        2.000000        0.22947420        0.01860527        0.00891024        0.01267898
      97         -0.242019        2.000000        0.23734550        0.01515191        0.00599845        0.01224530
      98         -0.240583        2.000000        0.19727384        0.01522163        0.00688467        0.01846083
      99         -0.239345        2.000000        0.29046669        0.01071861        0.00734346        0.01142672
     100         -0.238454        2.000000        0.24575257        0.01054434        0.00988008        0.01294904
     101         -0.238049        2.000000        0.25608954        0.01146846        0.00866207        0.01360993
     102         -0.237678        2.000000        0.21675760        0.01581574        0.00675211        0.01303077
     103         -0.236868        2.000000        0.29447647        0.01279349        0.00844046        0.01015227
     104         -0.235137        2.000000        0.25295904        0.01074219        0.00998192        0.01622852
     105         -0.234091        2.000000        0.22026447        0.01755800        0.00716985        0.01205247
     106         -0.233472        2.000000        0.20734838        0.01417772        0.00493458        0.01507995
     107         -0.232649        2.000000        0.20294121        0.01405955        0.00501939        0.01622062
     108         -0.231818        2.000000        0.25508942        0.00996455        0.01126991        0.01641254
     109         -0.231446        2.000000        0.25032966        0.01031069        0.01022025        0.01679933
     110         -0.231019        2.000000        0.22217466        0.01506114        0.00741324        0.01177327
     111         -0.229459        2.000000        0.28836572        0.00938787        0.00771504        0.01260097
     112         -0.228158        2.000000        0.25558486        0.01473829        0.00729939        0.01081330
     113         -0.227780        2.000000        0.20080097        0.01793333        0.00717361        0.01240883
     114         -0.226332        2.000000        0.16381570        0.01220269        0.00811006        0.01941667
     115         -0.225601        2.000000        0.24763216        0.01273506        0.00415283        0.01334402
     116         -0.224920        2.000000        0.19244261        0.01409229        0.00660834        0.01558227
     117         -0.224749        2.000000        0.17239324        0.01698123        0.00872613        0.01808874
     118         -0.223719        2.000000        0.16203997        0.02100866        0.00609361        0.01117521
     119         -0.222951        2.000000        0.23541028        0.01710532        0.00640034        0.01161963
     120         -0.222207        2.000000        0.27512809        0.01373140        0.00610122        0.01124217
     121         -0.221036        2.000000        0.17143329        0.02398622        0.00692626        0.01661039
     122         -0.220117        2.000000        0.25039380        0.01009552        0.00556384        0.01686660
     123         -0.219488        2.000000        0.18984796        0.01764159        0.00618256        0.01670914
     124         -0.218585        2.000000        0.23219048        0.01326835        0.00867633        0.01697048
     125         -0.215067        2.000000        0.19272398        0.01660302        0.00580330        0.01731726
     126         -0.213717        2.000000        0.30361749        0.01192230        0.00810000        0.01002711
     127         -0.213123        2.000000        0.29437897        0.01150567        0.00594292        0.00974544
     128         -0.212216        2.000000        0.27125434        0.01036156        0.00781994        0.01239651
     129         -0.208697        2.000000        0.26523695        0.01002804        0.01069869        0.01377504
     130         -0.208145        2.000000        0.24406407        0.01608674        0.00625174        0.01127366
     131         -0.206893        2.000000        0.24353979        0.01967092        0.00662858        0.00757538
     132         -0.203883        2.000000        0.16224529        0.01838342        0.00898784        0.01867787
     133         -0.203390        2.000000        0.20141168        0.01704044        0.00921126        0.01585553
     134         -0.201649        2.000000        0.22219346        0.01109957        0.01010319        0.01988566
     135         -0.199767        2.000000        0.19563477        0.01405635        0.00774173        0.01951224
     136         -0.198232        2.000000        0.27707084        0.01141606        0.01300908        0.01193619
     137         -0.195448        2.000000        0.16150521        0.02210121        0.00917420        0.01593304
     138         -0.195129        2.000000        0.14319654        0.02594600        0.00855789        0.01469691
     139         -0.193923        2.000000        0.05285227        0.02870393        0.00274511        0.01305487
     140         -0.191495        2.000000        0.02972445        0.00796594        0.00172197        0.03511508
     141         -0.188598        2.000000        0.01671690        0.03271979        0.00157159        0.01148377
     142         -0.176798        2.000000        0.01041348        0.00414955        0.00163090        0.03785497
     143         -0.170984        2.000000        0.00434557        0.02841646        0.00129015        0.01504167
     144         -0.169855        2.000000        0.00860818        0.03323281        0.00172444        0.01030556
     145         -0.167831        2.000000        0.00530081        0.03148501        0.00118869        0.01126706
     146         -0.167111        2.000000        0.00629789        0.02536060        0.00172740        0.01781553
     147         -0.163586        2.000000        0.00648860        0.00356402        0.00185287        0.04713807
     148         -0.161804        2.000000        0.00301263        0.01185020        0.00127744        0.02981846
     149         -0.160095        2.000000        0.00867070        0.03878612        0.00295900        0.01199910
     150         -0.157532        2.000000        0.00762829        0.03928203        0.00240763        0.01245174
     151         -0.142900        2.000000        0.00337706        0.00704350        0.00150401        0.04110695
     152         -0.138311        2.000000        0.00216344        0.00150267        0.00096863        0.03810298
     153         -0.137702        2.000000        0.00366747        0.03363180        0.00208888        0.01571089
     154         -0.136233        2.000000        0.00252094        0.01795383        0.00112305        0.03073428
     155         -0.136036        2.000000        0.00236726        0.04054697        0.00092520        0.00179271
     156         -0.133430        2.000000        0.00458375        0.03665694        0.00175207        0.01248173
     157         -0.129609        2.000000        0.00291499        0.02496099        0.00179770        0.02570074
     158         -0.127837        2.000000        0.00304457        0.03452574        0.00163513        0.01610131
     159         -0.100755        2.000000        0.00311532        0.00149026        0.00071303        0.04468447
     160         -0.093755        2.000000        0.00286518        0.04747956        0.00095337        0.00145046
     161         -0.026910        0.000000        0.03133331        0.00119523        0.01748506        0.00156268
     162         -0.019238        0.000000        0.01184887        0.00405231        0.01362685        0.00229374
     163         -0.018508        0.000000        0.00454496        0.00804637        0.01613331        0.00826932
     164         -0.016074        0.000000        0.00493974        0.01020138        0.01375193        0.01164247
     165         -0.013624        0.000000        0.00585734        0.01164783        0.01547143        0.01397335
     166         -0.006168        0.000000        0.01298557        0.02292352        0.01591042        0.00943560
     167         -0.004830        0.000000        0.01346769        0.01276941        0.01380544        0.02171161
     168         -0.000805        0.000000        0.01469093        0.01095874        0.01625697        0.02581281
     169         -0.000233        0.000000        0.01327044        0.01763160        0.02054272        0.01646120
     170          0.001412        0.000000        0.01362238        0.01292025        0.01531538        0.02449444
     171          0.002938        0.000000        0.01538003        0.01034884        0.01860443        0.02138123
     172          0.003592        0.000000        0.01226700        0.02015632        0.01255656        0.02271416
     173          0.005254        0.000000        0.01877428        0.02499389        0.02200000        0.01560715
     174          0.007776        0.000000        0.01264517        0.02441817        0.01553221        0.00891958
     175          0.017483        0.000000        0.00872920        0.01856961        0.02083048        0.03174927
     176          0.022330        0.000000        0.01073370        0.03568162        0.02253082        0.01385513
     177          0.023014        0.000000        0.01122202        0.02709326        0.02055268        0.02766887
     178          0.027000        0.000000        0.01018469        0.02075853        0.02443209        0.02710332
     179          0.028340        0.000000        0.01312007        0.02262636        0.02620477        0.02696498
     180          0.030093        0.000000        0.01861245        0.01727884        0.03234705        0.03085576
     181          0.049126        0.000000        0.01533720        0.02786901        0.01726569        0.05270273
     182          0.050835        0.000000        0.04551186        0.06187879        0.04969127        0.09818456
     183          0.052599        0.000000        0.06316534        0.07107694        0.06798358        0.10408211
     184          0.053960        0.000000        0.02609627        0.03605535        0.02465485        0.07866112
     185          0.059883        0.000000        0.07437437        0.15342667        0.06790313        0.05480547
     186          0.063672        0.000000        0.07628467        0.08343431        0.05381146        0.07861514
     187          0.068136        0.000000        0.07164469        0.04716895        0.06206322        0.11145461
     188          0.070887        0.000000        0.06321857        0.05656788        0.05554370        0.08967315
     189          0.072089        0.000000        0.06277942        0.04776486        0.06500674        0.11627843
     190          0.073287        0.000000        0.06997663        0.11527657        0.06684660        0.05922801
     191          0.074768        0.000000        0.06943545        0.05978163        0.05324498        0.09656266
     192          0.076956        0.000000        0.06891698        0.07003508        0.04951516        0.08371298
     193          0.081455        0.000000        0.05952945        0.09789219        0.05373284        0.07553896
     194          0.082625        0.000000        0.05968892        0.08718167        0.06610498        0.09441546
     195          0.083749        0.000000        0.07465862        0.09290881        0.06181729        0.07866284
     196          0.084937        0.000000        0.05733181        0.10313764        0.06935806        0.03831225
     197          0.086392        0.000000        0.05815615        0.07517155        0.05530423        0.07114915
     198          0.087724        0.000000        0.05174717        0.09214023        0.05923718        0.04947603
     199          0.090208        0.000000        0.04661431        0.07617544        0.06350849        0.05323492
     200          0.091939        0.000000        0.09443162        0.05894729        0.06607525        0.06806639
     201          0.094122        0.000000        0.05975760        0.07507568        0.05756247        0.07472826
     202          0.095493        0.000000        0.04978609        0.05482301        0.03543734        0.05626018
     203          0.096042        0.000000        0.07671948        0.05849138        0.05366859        0.05835196
     204          0.097394        0.000000        0.06869818        0.04766723        0.04859619        0.07049744
     205          0.097927        0.000000        0.05646197        0.04917799        0.03612178        0.05998813
     206          0.100346        0.000000        0.07756480        0.05181286        0.05058254        0.07834275
     207          0.101236        0.000000        0.08246073        0.07184931        0.05267207        0.06049292
     208          0.102179        0.000000        0.06603130        0.06961598        0.04853163        0.06164173
     209          0.103263        0.000000        0.08318264        0.03732204        0.04069882        0.04781482
     210          0.104685        0.000000        0.06266210        0.06319736        0.04929974        0.07058129
