# Projected DOS for atomic kind Ge at iteration step i = 0, E(Fermi) =    -0.096079 a.u.
#     MO Eigenvalue [a.u.]      Occupation                 s                py                pz                px               d-2               d-1                d0               d+1               d+2
       1         -0.559288        2.000000        0.75160571        0.00601791        0.02009151        0.00533944        0.00076288        0.00049027        0.00724198        0.00065329        0.00100880
       2         -0.541713        2.000000        0.01312833        0.00048560        0.00314345        0.00078626        0.00009757        0.00003031        0.00053352        0.00009232        0.00007175
       3         -0.538038        2.000000        0.65786699        0.03605655        0.01324838        0.07411599        0.00705451        0.00202736        0.00322458        0.00402983        0.00373897
       4         -0.535939        2.000000        0.65132590        0.07265700        0.01353963        0.04095541        0.00418503        0.00350361        0.00221966        0.00243521        0.00721779
       5         -0.531287        2.000000        0.65190172        0.05133421        0.00956016        0.06327542        0.00649210        0.00256037        0.00318173        0.00407593        0.00587325
       6         -0.529838        2.000000        0.64433728        0.06108875        0.00848334        0.05356770        0.00530261        0.00311631        0.00280696        0.00335986        0.00664813
       7         -0.527141        2.000000        0.64924084        0.08411798        0.00921679        0.02875405        0.00365767        0.00476218        0.00335173        0.00153923        0.00847858
       8         -0.522227        2.000000        0.60168899        0.03309144        0.00732779        0.07851367        0.00774803        0.00176741        0.00240987        0.00409916        0.00323828
       9         -0.520938        2.000000        0.04539825        0.00304759        0.00195832        0.00483697        0.00058440        0.00019213        0.00045371        0.00045855        0.00036096
      10         -0.517940        2.000000        0.01819739        0.00158914        0.00164836        0.00133299        0.00020400        0.00016303        0.00031467        0.00013449        0.00027385
      11         -0.516031        2.000000        0.01512171        0.00100558        0.00154852        0.00139070        0.00022800        0.00009884        0.00029003        0.00013619        0.00014737
      12         -0.514470        2.000000        0.01183399        0.00067141        0.00172554        0.00129497        0.00019102        0.00005985        0.00029242        0.00012917        0.00009194
      13         -0.512182        2.000000        0.00812299        0.00047463        0.00156965        0.00074995        0.00010901        0.00007527        0.00022053        0.00006295        0.00009752
      14         -0.509300        2.000000        0.00342356        0.00043793        0.00097829        0.00023532        0.00004286        0.00003502        0.00014837        0.00004359        0.00006770
      15         -0.492131        2.000000        0.54881394        0.13365818        0.00283361        0.08075142        0.01291778        0.00809562        0.00092989        0.00591492        0.01641612
      16         -0.487670        2.000000        0.54136538        0.07698567        0.00200158        0.13633827        0.01540934        0.00585793        0.00075323        0.00933847        0.01391991
      17         -0.486703        2.000000        0.55091582        0.07086699        0.00141436        0.13410475        0.01847861        0.00577376        0.00029472        0.01022430        0.01470728
      18         -0.484043        2.000000        0.54444854        0.10068784        0.00179017        0.11243615        0.01992124        0.00732199        0.00083682        0.00765050        0.01201546
      19         -0.481845        2.000000        0.54110691        0.12536949        0.00143510        0.08208190        0.01193879        0.00719881        0.00043984        0.00553053        0.01958631
      20         -0.481081        2.000000        0.54735760        0.11390584        0.00306735        0.07379887        0.01638162        0.00794079        0.00108688        0.00469198        0.02200728
      21         -0.479659        2.000000        0.54563842        0.09459917        0.00142821        0.10997792        0.01792597        0.00695480        0.00040273        0.00691331        0.01749090
      22         -0.476226        2.000000        0.22411886        0.05608609        0.00085268        0.02956283        0.00532931        0.00301018        0.00025904        0.00217402        0.00980221
      23         -0.475176        2.000000        0.30866621        0.06438668        0.00112156        0.05320526        0.00908250        0.00391870        0.00023694        0.00319014        0.01118750
      24         -0.472761        2.000000        0.03073282        0.00446690        0.00025466        0.00702573        0.00112715        0.00028131        0.00004052        0.00055278        0.00078232
      25         -0.471802        2.000000        0.32658652        0.03669892        0.00219144        0.07551211        0.01394901        0.00269822        0.00044154        0.00515557        0.00776727
      26         -0.470875        2.000000        0.23436698        0.03553336        0.00161689        0.04823813        0.00916344        0.00256345        0.00038558        0.00317482        0.00624174
      27         -0.469230        2.000000        0.00828439        0.00143524        0.00056249        0.00176669        0.00026730        0.00021902        0.00005945        0.00014501        0.00026288
      28         -0.468983        2.000000        0.00248774        0.00059345        0.00029278        0.00052853        0.00006415        0.00005294        0.00003756        0.00003426        0.00010557
      29         -0.467687        2.000000        0.00191382        0.00038748        0.00022130        0.00053520        0.00007868        0.00005980        0.00003834        0.00006207        0.00005858
      30         -0.465162        2.000000        0.00344751        0.00052495        0.00033239        0.00080102        0.00013036        0.00005126        0.00003592        0.00009184        0.00011343
      31         -0.464885        2.000000        0.00371029        0.00080424        0.00049032        0.00086004        0.00014382        0.00005216        0.00004041        0.00009539        0.00009189
      32         -0.462422        2.000000        0.00183391        0.00031500        0.00031258        0.00082932        0.00006086        0.00001875        0.00004296        0.00003577        0.00003703
      33         -0.423754        2.000000        0.37374781        0.08721719        0.03272703        0.20879240        0.00984561        0.00462819        0.00810054        0.01720716        0.00381557
      34         -0.421620        2.000000        0.37967301        0.10221532        0.03681396        0.17655719        0.01000735        0.00653811        0.01035734        0.01454115        0.00600171
      35         -0.419262        2.000000        0.36183066        0.20119088        0.06188853        0.03854846        0.00301366        0.01906407        0.00545321        0.00711094        0.01192817
      36         -0.412280        2.000000        0.39564829        0.09889835        0.06022940        0.10661317        0.01649631        0.01047732        0.00806708        0.01261114        0.01110892
      37         -0.410422        2.000000        0.08175018        0.01864687        0.01678138        0.02913885        0.00285557        0.00238051        0.00175814        0.00298399        0.00193853
      38         -0.409947        2.000000        0.21237304        0.04537483        0.03715976        0.07563465        0.01077364        0.00515576        0.00430133        0.00785368        0.00404751
      39         -0.409194        2.000000        0.39164612        0.11560156        0.04672290        0.10556623        0.01260255        0.01201064        0.01229362        0.00905488        0.01567835
      40         -0.407959        2.000000        0.17573202        0.04084436        0.02793368        0.05507795        0.00767557        0.00396780        0.00467804        0.00593765        0.00467986
      41         -0.407544        2.000000        0.16174366        0.04615663        0.01998060        0.05173764        0.00625102        0.00393912        0.00481383        0.00483449        0.00635705
      42         -0.406737        2.000000        0.27376712        0.08633476        0.04006692        0.07670654        0.00708999        0.00889337        0.00663824        0.00750230        0.01129860
      43         -0.405555        2.000000        0.31128939        0.11607147        0.04303560        0.06757729        0.00701257        0.01076478        0.00886069        0.00723274        0.01436407
      44         -0.404398        2.000000        0.34251394        0.09939025        0.04715831        0.10858412        0.01111464        0.01203045        0.01084979        0.00928264        0.01281582
      45         -0.401440        2.000000        0.05191622        0.01688002        0.00734461        0.01367565        0.00166406        0.00125656        0.00121034        0.00146450        0.00216232
      46         -0.399164        2.000000        0.03140592        0.01145574        0.00397135        0.00871122        0.00092222        0.00102665        0.00067647        0.00078204        0.00132407
      47         -0.398108        2.000000        0.00647430        0.00235045        0.00274038        0.00165476        0.00016420        0.00016195        0.00026857        0.00018677        0.00024754
      48         -0.397804        2.000000        0.01886773        0.00366897        0.00464722        0.00698611        0.00088668        0.00063733        0.00039299        0.00049972        0.00038706
      49         -0.395362        2.000000        0.00478918        0.00170055        0.00189540        0.00143307        0.00014507        0.00014880        0.00021167        0.00016257        0.00016748
      50         -0.393595        2.000000        0.00591205        0.00148061        0.00312831        0.00178336        0.00021578        0.00016353        0.00017178        0.00017190        0.00013675
      51         -0.388447        2.000000        0.19390103        0.01747702        0.23575752        0.02737854        0.00389028        0.00446366        0.00889300        0.00630258        0.00267922
      52         -0.382542        2.000000        0.21310218        0.03139543        0.22084754        0.02057024        0.00407229        0.00788834        0.01083658        0.00533051        0.00545850
      53         -0.380049        2.000000        0.20979720        0.02287517        0.21127560        0.03009238        0.00545783        0.00521298        0.01048396        0.00676897        0.00315950
      54         -0.377545        2.000000        0.22220091        0.02941232        0.18907506        0.03492042        0.00494784        0.00524117        0.01310706        0.00770817        0.00490468
      55         -0.376334        2.000000        0.09360921        0.00704788        0.12484834        0.01355754        0.00240713        0.00137497        0.00722501        0.00324271        0.00120616
      56         -0.374899        2.000000        0.14543834        0.02705734        0.13365649        0.01574889        0.00209937        0.00557087        0.01049438        0.00250771        0.00473734
      57         -0.368864        2.000000        0.12807975        0.01454885        0.14635380        0.02428703        0.00341569        0.00348598        0.00856775        0.00383098        0.00218693
      58         -0.366123        2.000000        0.05632060        0.00915534        0.04516002        0.00912765        0.00134331        0.00159266        0.00298434        0.00128015        0.00135042
      59         -0.363744        2.000000        0.05366865        0.00680847        0.03726004        0.01255031        0.00171018        0.00117368        0.00265956        0.00177478        0.00086218
      60         -0.363392        2.000000        0.11368718        0.02319984        0.08098228        0.01549390        0.00216389        0.00355335        0.00734013        0.00201756        0.00374687
      61         -0.361842        2.000000        0.08300730        0.01189218        0.06377788        0.01376144        0.00211069        0.00207469        0.00477542        0.00269358        0.00183874
      62         -0.360588        2.000000        0.10911235        0.02056122        0.07843216        0.01554030        0.00252401        0.00313647        0.00648675        0.00319061        0.00297534
      63         -0.357997        2.000000        0.12444905        0.01891000        0.10235034        0.02179689        0.00304158        0.00416992        0.00734330        0.00326643        0.00313413
      64         -0.354375        2.000000        0.10342608        0.00564898        0.17886097        0.00715269        0.00126578        0.00075335        0.00650649        0.00152197        0.00063494
      65         -0.278709        2.000000        0.00307096        0.01374555        0.02913701        0.01675143        0.00027091        0.00052833        0.00174507        0.00062170        0.00063987
      66         -0.276996        2.000000        0.00087301        0.00357937        0.00924295        0.00417196        0.00015669        0.00015192        0.00049113        0.00034765        0.00013936
      67         -0.275156        2.000000        0.00191128        0.01972304        0.03041021        0.00703304        0.00043353        0.00057391        0.00134082        0.00022712        0.00036809
      68         -0.270731        2.000000        0.00911269        0.03647707        0.11874198        0.07219162        0.00260143        0.00116823        0.00479589        0.00102632        0.00385733
      69         -0.270359        2.000000        0.00853640        0.12826806        0.16911260        0.04831048        0.00384618        0.00066848        0.00561208        0.00076895        0.00120369
      70         -0.267377        2.000000        0.00706116        0.04971706        0.17967322        0.10994762        0.00124658        0.00069966        0.00599839        0.00106851        0.00182319
      71         -0.266277        2.000000        0.00598164        0.05135836        0.15885783        0.08929233        0.00080459        0.00091360        0.00585673        0.00096300        0.00194312
      72         -0.264668        2.000000        0.00413626        0.07768599        0.11656327        0.02354875        0.00157108        0.00078528        0.00393382        0.00047544        0.00136096
      73         -0.262561        2.000000        0.00569505        0.03723996        0.10930050        0.03620717        0.00211507        0.00070956        0.00532456        0.00070218        0.00150098
      74         -0.261885        2.000000        0.00500099        0.06343581        0.16328492        0.04989048        0.00119690        0.00081316        0.00725948        0.00069888        0.00198539
      75         -0.259753        2.000000        0.00459178        0.05097721        0.14473330        0.05662096        0.00132106        0.00064656        0.00527913        0.00114650        0.00221945
      76         -0.259363        2.000000        0.00533994        0.03112780        0.14286545        0.07777186        0.00124763        0.00089256        0.00445179        0.00122856        0.00149762
      77         -0.257384        2.000000        0.00355533        0.01567851        0.04399276        0.01413377        0.00113403        0.00036155        0.00358835        0.00027918        0.00053829
      78         -0.255267        2.000000        0.00875987        0.08044408        0.17278052        0.03338302        0.00301646        0.00092423        0.00804828        0.00100971        0.00562943
      79         -0.254393        2.000000        0.00489966        0.04285883        0.10592106        0.02378846        0.00207483        0.00066912        0.00431111        0.00076991        0.00247652
      80         -0.253683        2.000000        0.00687466        0.06586617        0.20711367        0.06483545        0.00365095        0.00167571        0.01130417        0.00202768        0.00373907
      81         -0.253010        2.000000        0.00664264        0.07137658        0.18413515        0.03746306        0.00277685        0.00189256        0.02206092        0.00203851        0.00208718
      82         -0.252237        2.000000        0.00815010        0.04798139        0.11871328        0.02506555        0.00262598        0.00071611        0.01003740        0.00079760        0.00209772
      83         -0.251139        2.000000        0.00479343        0.03194938        0.07734862        0.02497278        0.00131968        0.00085632        0.00489112        0.00047111        0.00228494
      84         -0.250843        2.000000        0.01094763        0.11509079        0.18323860        0.04244488        0.00503727        0.00144410        0.01570753        0.00306087        0.00384123
      85         -0.250257        2.000000        0.01019270        0.04163670        0.11814888        0.05777891        0.00355775        0.00182205        0.00859119        0.00075100        0.00358044
      86         -0.249883        2.000000        0.00777476        0.06405235        0.15867894        0.04920780        0.00341372        0.00125960        0.01126220        0.00173678        0.00312089
      87         -0.248687        2.000000        0.00928726        0.07162375        0.14657593        0.06484379        0.00385223        0.00128029        0.01377559        0.00246625        0.00302842
      88         -0.247725        2.000000        0.00786590        0.05677103        0.17393482        0.04007633        0.00473428        0.00148675        0.00934544        0.00116255        0.00256520
      89         -0.246929        2.000000        0.00693652        0.05083581        0.11582330        0.02529606        0.00261023        0.00081283        0.00734446        0.00080990        0.00283443
      90         -0.246491        2.000000        0.01192045        0.04972006        0.16292546        0.04202181        0.00360109        0.00149026        0.01537344        0.00140543        0.00322113
      91         -0.245473        2.000000        0.00655930        0.02838070        0.20458068        0.06397625        0.00382538        0.00177618        0.02372796        0.00193891        0.00206143
      92         -0.244581        2.000000        0.00915361        0.03980211        0.14466571        0.06212261        0.00391620        0.00172127        0.01443563        0.00275980        0.00179026
      93         -0.244018        2.000000        0.00472028        0.02247165        0.06378982        0.02940251        0.00115970        0.00122261        0.00972982        0.00094538        0.00130547
      94         -0.243366        2.000000        0.01142677        0.06118090        0.13239504        0.02808462        0.00197012        0.00198684        0.01202641        0.00225601        0.00408112
      95         -0.242359        2.000000        0.00795634        0.04152731        0.16772498        0.05194468        0.00360201        0.00120848        0.01083071        0.00236585        0.00215557
      96         -0.241948        2.000000        0.00943064        0.09740864        0.20438863        0.07248919        0.00318912        0.00371905        0.01959373        0.00271534        0.00532874
      97         -0.240843        2.000000        0.00909861        0.03965760        0.14422776        0.05001843        0.00330846        0.00107194        0.01066514        0.00239487        0.00320843
      98         -0.240376        2.000000        0.00763149        0.03361922        0.19539221        0.04425544        0.00263579        0.00243717        0.01971261        0.00126102        0.00356452
      99         -0.239508        2.000000        0.00903817        0.04742299        0.10219655        0.03449134        0.00204834        0.00164451        0.01094655        0.00166038        0.00297175
     100         -0.238511        2.000000        0.01300132        0.04754222        0.22340398        0.16184329        0.00670764        0.00239850        0.01895378        0.00210902        0.00638201
     101         -0.237668        2.000000        0.00459499        0.04421755        0.12451132        0.03968414        0.00140766        0.00220446        0.01083656        0.00164704        0.00214473
     102         -0.236684        2.000000        0.00730725        0.02042549        0.09380346        0.03929206        0.00204433        0.00114825        0.00920689        0.00131429        0.00174998
     103         -0.236015        2.000000        0.01267907        0.06872273        0.13447700        0.09098970        0.00418505        0.00253840        0.02086637        0.00316167        0.00380097
     104         -0.234664        2.000000        0.00616019        0.03264871        0.11288171        0.05752537        0.00195471        0.00238340        0.01250710        0.00217681        0.00197698
     105         -0.234451        2.000000        0.00977116        0.04222572        0.17327330        0.09195539        0.00351988        0.00276575        0.02303851        0.00203139        0.00276807
     106         -0.233583        2.000000        0.00630396        0.06696169        0.14053617        0.09265681        0.00195131        0.00186739        0.01702978        0.00294934        0.00305589
     107         -0.232833        2.000000        0.00916568        0.06116442        0.18224929        0.07798398        0.00167990        0.00285609        0.02828050        0.00258764        0.00431429
     108         -0.231848        2.000000        0.00865611        0.06833627        0.17231399        0.05036432        0.00519386        0.00247837        0.01727207        0.00365912        0.00342466
     109         -0.231559        2.000000        0.01270344        0.05615523        0.19532789        0.06574584        0.00515478        0.00322126        0.02202960        0.00252036        0.00330501
     110         -0.230664        2.000000        0.01170513        0.07555057        0.17764667        0.09557925        0.00558797        0.00283704        0.01644319        0.00316181        0.00385025
     111         -0.229517        2.000000        0.01644317        0.04069925        0.11124599        0.08586281        0.00593479        0.00258940        0.00851652        0.00186579        0.00276756
     112         -0.229156        2.000000        0.01196054        0.07751588        0.18078267        0.06569603        0.00745010        0.00217696        0.01900771        0.00430130        0.00346456
     113         -0.227926        2.000000        0.01028068        0.05902701        0.17842420        0.05535985        0.00426078        0.00221594        0.01650404        0.00353543        0.00587217
     114         -0.226912        2.000000        0.02278350        0.10943273        0.16677252        0.08612493        0.00631275        0.00189396        0.01456141        0.00278154        0.00755034
     115         -0.226076        2.000000        0.02261761        0.12854778        0.17156871        0.03734478        0.00382843        0.00364264        0.01839092        0.00236367        0.00900649
     116         -0.225485        2.000000        0.01352447        0.11645231        0.16586915        0.09508342        0.00367082        0.00347904        0.01782631        0.00383190        0.00551120
     117         -0.224556        2.000000        0.03383944        0.10892893        0.17746029        0.10936822        0.00953298        0.00218630        0.01636880        0.00279639        0.00991656
     118         -0.224305        2.000000        0.01900877        0.12703095        0.12333249        0.15268532        0.01229861        0.00409866        0.01226040        0.00209611        0.00583700
     119         -0.222526        2.000000        0.03036285        0.13701609        0.17439067        0.12716934        0.00934045        0.00251129        0.01384839        0.00289881        0.01144672
     120         -0.221728        2.000000        0.01383176        0.09270030        0.10488664        0.07779639        0.00589988        0.00247585        0.01059720        0.00215726        0.00525029
     121         -0.220881        2.000000        0.00505505        0.06343832        0.07116752        0.04320022        0.00250539        0.00195993        0.00727247        0.00090670        0.00383502
     122         -0.219580        2.000000        0.01110594        0.05115328        0.17189882        0.09498477        0.00550234        0.00320848        0.01908421        0.00257496        0.00545753
     123         -0.219350        2.000000        0.02063547        0.10854408        0.17016800        0.09872569        0.00849185        0.00275704        0.01671381        0.00420970        0.00505699
     124         -0.218242        2.000000        0.03039596        0.14326020        0.24157501        0.11453319        0.00903875        0.00238644        0.01859389        0.00311137        0.01412846
     125         -0.217622        2.000000        0.01354198        0.10191594        0.23702952        0.12997107        0.00474041        0.00314988        0.03121619        0.00657342        0.00673099
     126         -0.215456        2.000000        0.01483518        0.08643765        0.14397729        0.11474058        0.00578970        0.00364913        0.01924101        0.00312592        0.00805400
     127         -0.212757        2.000000        0.03295595        0.08374973        0.22249496        0.19485009        0.01733955        0.00431016        0.02377935        0.00393124        0.00983143
     128         -0.211625        2.000000        0.01231374        0.13969220        0.21997142        0.12414199        0.00793600        0.00565876        0.03882330        0.00576465        0.00629530
     129         -0.209621        2.000000        0.02649627        0.14116579        0.22264054        0.18102429        0.01388842        0.00470433        0.02312718        0.00688760        0.01150860
     130         -0.208333        2.000000        0.01711497        0.09254495        0.22663955        0.09831855        0.00843065        0.00432243        0.03154224        0.00446303        0.00790084
     131         -0.205517        2.000000        0.01855386        0.21545660        0.20307725        0.16607949        0.00948012        0.00742665        0.02149332        0.00706976        0.01719021
     132         -0.204688        2.000000        0.01384189        0.15761116        0.20208416        0.14606447        0.00765421        0.00525985        0.03492358        0.00810507        0.01020696
     133         -0.202773        2.000000        0.02478881        0.20123132        0.23009889        0.10910353        0.01304146        0.00542103        0.03061075        0.00780437        0.01157569
     134         -0.199848        2.000000        0.01462224        0.27018389        0.17714682        0.20711798        0.01461437        0.00944789        0.01728544        0.01060276        0.01136844
     135         -0.198990        2.000000        0.02580161        0.13387293        0.22610815        0.23251820        0.01660256        0.00803143        0.03127159        0.00725869        0.01216180
     136         -0.196999        2.000000        0.01381559        0.18951430        0.22628198        0.19196063        0.01035472        0.01155794        0.03231725        0.00675428        0.01158973
     137         -0.195904        2.000000        0.02174038        0.15641892        0.22742358        0.17970741        0.00925298        0.00673155        0.03548998        0.00786705        0.01609573
     138         -0.195441        2.000000        0.02369307        0.27165843        0.21503454        0.16458812        0.01464571        0.01411743        0.01571708        0.01002908        0.01617587
     139         -0.189656        2.000000        0.00039299        0.00477389        0.00603084        0.00259774        0.00023950        0.00020266        0.00091834        0.00016016        0.00030581
     140         -0.187922        2.000000        0.00074208        0.00427341        0.01148510        0.00470573        0.00033259        0.00028041        0.00187169        0.00017913        0.00051554
     141         -0.185334        2.000000        0.00024896        0.00229961        0.00366693        0.00237859        0.00018114        0.00012054        0.00058447        0.00009705        0.00014152
     142         -0.171927        2.000000        0.00003093        0.00034801        0.00079636        0.00037113        0.00002054        0.00001705        0.00008860        0.00002064        0.00002660
     143         -0.167935        2.000000        0.00003465        0.00060664        0.00050076        0.00120791        0.00003459        0.00002499        0.00003273        0.00005332        0.00002918
     144         -0.165312        2.000000        0.00022749        0.00176627        0.00180621        0.04204606        0.00044600        0.00007786        0.00016190        0.00113284        0.00015111