# Projected DOS for atomic kind Ge at iteration step i = 0, E(Fermi) =    -0.095688 a.u.
#     MO Eigenvalue [a.u.]      Occupation                 s                py                pz                px               d-2               d-1                d0               d+1               d+2
       1         -0.559136        2.000000        0.75116651        0.00608824        0.02004492        0.00525370        0.00075469        0.00049503        0.00722662        0.00065059        0.00101072
       2         -0.541990        2.000000        0.01160378        0.00034150        0.00317109        0.00056737        0.00007412        0.00002258        0.00055382        0.00007800        0.00005555
       3         -0.538046        2.000000        0.65747256        0.03666343        0.01307309        0.07358210        0.00698336        0.00206104        0.00311809        0.00405261        0.00379094
       4         -0.535583        2.000000        0.65280144        0.07496715        0.01367865        0.03877859        0.00395018        0.00363531        0.00229880        0.00230601        0.00747473
       5         -0.531030        2.000000        0.65096606        0.04191541        0.00889870        0.07296203        0.00725114        0.00212621        0.00329160        0.00460005        0.00479699
       6         -0.529611        2.000000        0.64477149        0.06398364        0.00920239        0.04977096        0.00511267        0.00319476        0.00268356        0.00306775        0.00700998
       7         -0.527149        2.000000        0.64902068        0.08727263        0.00897162        0.02553646        0.00335721        0.00493920        0.00331827        0.00141346        0.00884906
       8         -0.522278        2.000000        0.52888821        0.02925862        0.00651680        0.06925438        0.00675444        0.00158557        0.00208676        0.00354738        0.00288290
       9         -0.521497        2.000000        0.11623997        0.00679540        0.00262259        0.01413731        0.00154013        0.00038780        0.00076392        0.00103283        0.00073200
      10         -0.517869        2.000000        0.01947221        0.00171441        0.00175909        0.00140427        0.00021405        0.00017035        0.00033715        0.00013779        0.00029074
      11         -0.516155        2.000000        0.01685183        0.00099552        0.00149301        0.00175826        0.00026573        0.00009402        0.00027823        0.00015682        0.00013827
      12         -0.514936        2.000000        0.01215758        0.00071391        0.00172222        0.00129995        0.00018883        0.00006129        0.00030009        0.00012748        0.00009862
      13         -0.512219        2.000000        0.00755748        0.00043668        0.00157823        0.00066966        0.00010051        0.00007738        0.00021220        0.00005972        0.00009601
      14         -0.509500        2.000000        0.00350156        0.00045383        0.00094116        0.00023355        0.00004104        0.00003615        0.00014884        0.00004189        0.00006941
      15         -0.491857        2.000000        0.54901282        0.13479114        0.00268615        0.08027349        0.01283861        0.00818211        0.00092061        0.00587186        0.01647260
      16         -0.487502        2.000000        0.54185551        0.07099099        0.00222040        0.14267796        0.01635111        0.00558312        0.00074036        0.00939021        0.01310393
      17         -0.486786        2.000000        0.54931193        0.07393047        0.00146675        0.13027098        0.01773589        0.00596996        0.00032448        0.01028589        0.01544399
      18         -0.483671        2.000000        0.54518549        0.10086378        0.00180815        0.11070176        0.01980625        0.00739019        0.00083146        0.00761104        0.01213312
      19         -0.481887        2.000000        0.53615789        0.12082624        0.00151072        0.08739071        0.01321706        0.00703602        0.00046517        0.00569237        0.01781969
      20         -0.480969        2.000000        0.55055759        0.12128048        0.00289115        0.06360484        0.01400192        0.00853441        0.00095591        0.00416520        0.02492501
      21         -0.480006        2.000000        0.54490509        0.08978090        0.00155273        0.11489171        0.01953294        0.00639753        0.00048901        0.00742656        0.01569228
      22         -0.476389        2.000000        0.14609802        0.03867413        0.00071592        0.01769832        0.00309788        0.00201974        0.00018904        0.00143534        0.00667387
      23         -0.475241        2.000000        0.37876690        0.08344076        0.00110848        0.06203852        0.01040438        0.00495018        0.00029148        0.00367891        0.01449458
      24         -0.472962        2.000000        0.04276694        0.00688269        0.00035252        0.00927214        0.00146986        0.00043972        0.00005068        0.00068429        0.00118197
      25         -0.471322        2.000000        0.28875526        0.03236604        0.00190664        0.06718163        0.01226451        0.00233190        0.00038198        0.00456076        0.00701572
      26         -0.470560        2.000000        0.26750687        0.03698310        0.00165759        0.05796128        0.01085725        0.00263696        0.00042661        0.00391185        0.00683070
      27         -0.469451        2.000000        0.00805019        0.00152443        0.00046171        0.00170090        0.00023285        0.00020400        0.00005096        0.00010402        0.00030145
      28         -0.468990        2.000000        0.00410091        0.00083514        0.00040577        0.00083699        0.00011784        0.00010909        0.00004492        0.00008981        0.00013243
      29         -0.467896        2.000000        0.00126248        0.00023564        0.00015226        0.00041280        0.00006398        0.00002810        0.00002523        0.00005139        0.00003361
      30         -0.465342        2.000000        0.00353676        0.00054940        0.00032253        0.00080875        0.00013212        0.00005006        0.00003573        0.00008859        0.00012010
      31         -0.464545        2.000000        0.00426720        0.00084266        0.00047527        0.00099725        0.00016453        0.00005669        0.00004009        0.00010740        0.00010372
      32         -0.463132        2.000000        0.00191358        0.00031569        0.00032045        0.00089074        0.00006367        0.00002291        0.00003999        0.00003912        0.00004028
      33         -0.423857        2.000000        0.37403137        0.08209412        0.03322403        0.21265118        0.01035593        0.00422689        0.00822001        0.01761841        0.00352255
      34         -0.421453        2.000000        0.38006418        0.09713248        0.03876167        0.17859660        0.00994536        0.00648360        0.01003106        0.01509142        0.00612847
      35         -0.419171        2.000000        0.35817840        0.20903496        0.06118744        0.02930403        0.00263328        0.01948601        0.00556857        0.00611404        0.01195682
      36         -0.412287        2.000000        0.38364740        0.09810656        0.06086569        0.10260712        0.01579550        0.01095907        0.00790232        0.01149988        0.00995242
      37         -0.410635        2.000000        0.11208275        0.02892296        0.02075239        0.03649339        0.00354728        0.00358208        0.00240521        0.00379778        0.00333979
      38         -0.410275        2.000000        0.22248021        0.05474009        0.03592580        0.07594503        0.01025071        0.00580675        0.00447789        0.00762236        0.00522767
      39         -0.408607        2.000000        0.36228749        0.10376535        0.04592503        0.09745751        0.01150434        0.01147204        0.01022699        0.00949168        0.01489247
      40         -0.407927        2.000000        0.10366254        0.03376386        0.01713632        0.02592556        0.00244962        0.00330605        0.00279551        0.00263675        0.00544777
      41         -0.407463        2.000000        0.26370711        0.05943176        0.03382890        0.09206364        0.01293659        0.00481936        0.00795163        0.00872677        0.00591310
      42         -0.406803        2.000000        0.25988669        0.07533555        0.03721772        0.07996705        0.00801539        0.00732053        0.00695172        0.00759866        0.01004604
      43         -0.405877        2.000000        0.29024262        0.11101403        0.04086762        0.05994232        0.00635627        0.01013605        0.00838935        0.00658011        0.01370301
      44         -0.403980        2.000000        0.35182069        0.10424937        0.04642244        0.10953790        0.01115366        0.01199098        0.01135247        0.00939150        0.01396861
      45         -0.401295        2.000000        0.04294691        0.01285858        0.00587821        0.01256030        0.00158934        0.00098985        0.00095429        0.00130310        0.00166696
      46         -0.399338        2.000000        0.03771204        0.01308593        0.00503561        0.01066237        0.00112469        0.00122761        0.00088379        0.00097916        0.00153901
      47         -0.398143        2.000000        0.01271573        0.00367879        0.00417490        0.00394139        0.00044451        0.00036922        0.00042785        0.00034269        0.00032052
      48         -0.397548        2.000000        0.01326423        0.00315398        0.00377245        0.00452666        0.00055807        0.00042176        0.00029079        0.00034612        0.00037987
      49         -0.395171        2.000000        0.00520917        0.00158782        0.00285107        0.00144213        0.00015251        0.00015151        0.00025028        0.00016558        0.00018049
      50         -0.393033        2.000000        0.00777182        0.00187436        0.00420418        0.00230291        0.00026909        0.00021506        0.00024472        0.00022671        0.00018593
      51         -0.388484        2.000000        0.19131018        0.01844406        0.22618062        0.02776121        0.00378643        0.00450853        0.00884599        0.00615217        0.00283349
      52         -0.381398        2.000000        0.19554373        0.03675463        0.19896041        0.01551941        0.00312909        0.00869374        0.01011302        0.00388690        0.00591184
      53         -0.380459        2.000000        0.22240520        0.01678559        0.23236729        0.03521406        0.00642168        0.00426759        0.01078790        0.00823425        0.00251922
      54         -0.377395        2.000000        0.23082992        0.03266540        0.20203305        0.03280865        0.00454078        0.00595753        0.01366980        0.00723882        0.00550349
      55         -0.375809        2.000000        0.11928933        0.00881934        0.13848996        0.02147340        0.00354412        0.00150684        0.00886608        0.00482480        0.00141508
      56         -0.374264        2.000000        0.13197793        0.02535995        0.13069750        0.01123544        0.00143301        0.00545536        0.00960450        0.00174097        0.00449704
      57         -0.368678        2.000000        0.14570039        0.01608572        0.16428204        0.02803054        0.00407315        0.00366616        0.00979799        0.00444205        0.00231058
      58         -0.366097        2.000000        0.06690907        0.01285386        0.05529194        0.00895541        0.00124399        0.00236247        0.00356486        0.00123526        0.00195165
      59         -0.363664        2.000000        0.05362956        0.01097790        0.03738980        0.00745525        0.00113651        0.00167933        0.00318467        0.00089499        0.00169783
      60         -0.363062        2.000000        0.11261313        0.01476648        0.08201019        0.02290432        0.00322389        0.00271406        0.00687500        0.00331554        0.00240098
      61         -0.360853        2.000000        0.06719959        0.00932760        0.05138456        0.01131211        0.00173599        0.00179731        0.00394208        0.00207460        0.00136761
      62         -0.360646        2.000000        0.11268106        0.02236714        0.08215579        0.01391021        0.00224866        0.00321606        0.00683744        0.00329064        0.00337316
      63         -0.357411        2.000000        0.09524374        0.01460058        0.07726123        0.01675702        0.00234623        0.00310040        0.00569509        0.00248558        0.00238749
      64         -0.354162        2.000000        0.09759238        0.00496836        0.16849047        0.00678037        0.00116548        0.00067543        0.00622369        0.00144637        0.00057503
      65         -0.278468        2.000000        0.00300599        0.01379167        0.02780715        0.01545134        0.00026111        0.00055210        0.00179525        0.00065412        0.00062666
      66         -0.277477        2.000000        0.00080754        0.00298883        0.00971095        0.00545738        0.00013214        0.00014271        0.00039455        0.00027473        0.00016279
      67         -0.274556        2.000000        0.00182681        0.02009377        0.03205333        0.00782049        0.00044564        0.00065419        0.00140395        0.00023509        0.00039147
      68         -0.270873        2.000000        0.00929437        0.04154709        0.12741825        0.07116795        0.00318451        0.00119797        0.00501233        0.00113300        0.00330693
      69         -0.270167        2.000000        0.00837392        0.12270218        0.16109745        0.04895285        0.00334227        0.00066178        0.00561769        0.00065162        0.00167917
      70         -0.267565        2.000000        0.00591081        0.03814729        0.14390429        0.08406032        0.00112918        0.00056132        0.00469387        0.00089461        0.00151352
      71         -0.266528        2.000000        0.00689194        0.06350671        0.19597581        0.11464351        0.00081855        0.00107700        0.00713649        0.00115322        0.00223099
      72         -0.264495        2.000000        0.00429428        0.07086329        0.11146535        0.02493353        0.00169252        0.00082354        0.00403474        0.00047844        0.00130973
      73         -0.262651        2.000000        0.00520861        0.04352295        0.12325516        0.03662972        0.00199853        0.00072455        0.00586971        0.00071535        0.00143501
      74         -0.261691        2.000000        0.00479348        0.05745201        0.15869910        0.05379290        0.00118702        0.00078831        0.00708817        0.00068599        0.00175326
      75         -0.259757        2.000000        0.00594517        0.05729211        0.14480801        0.05416799        0.00143803        0.00065023        0.00490325        0.00110348        0.00293816
      76         -0.259451        2.000000        0.00477692        0.02411113        0.11929335        0.06688920        0.00112070        0.00080005        0.00367159        0.00108322        0.00123458
      77         -0.257837        2.000000        0.00327334        0.01975780        0.05428990        0.01663155        0.00113184        0.00032591        0.00467003        0.00040743        0.00058910
      78         -0.254824        2.000000        0.00790569        0.07830657        0.20491197        0.03978606        0.00276054        0.00132882        0.01207921        0.00145155        0.00513617
      79         -0.254213        2.000000        0.00809740        0.06032691        0.16314657        0.04704494        0.00340782        0.00102279        0.00501391        0.00105992        0.00450952
      80         -0.253766        2.000000        0.00376621        0.03567011        0.08912222        0.03589330        0.00174224        0.00092107        0.00451257        0.00111141        0.00184559
      81         -0.253055        2.000000        0.00616330        0.06412252        0.17975734        0.03886874        0.00254414        0.00190580        0.02165679        0.00189818        0.00198526
      82         -0.252030        2.000000        0.00472972        0.04710447        0.10824702        0.01588246        0.00180922        0.00036266        0.01021985        0.00079763        0.00135607
      83         -0.251367        2.000000        0.00651354        0.02692974        0.08449760        0.03487438        0.00173314        0.00152080        0.00568136        0.00080549        0.00263032
      84         -0.250810        2.000000        0.00843920        0.09503026        0.17927407        0.06582804        0.00441599        0.00175474        0.01011359        0.00235027        0.00364004
      85         -0.250546        2.000000        0.01510393        0.09693427        0.18840560        0.04474510        0.00518482        0.00151099        0.01725350        0.00180349        0.00499346
      86         -0.249965        2.000000        0.00795886        0.05512126        0.14092246        0.04116978        0.00307487        0.00110756        0.01137341        0.00148670        0.00278354
      87         -0.248690        2.000000        0.01019915        0.06981676        0.14581177        0.07164223        0.00442722        0.00139424        0.01139214        0.00214966        0.00320566
      88         -0.247815        2.000000        0.00799249        0.06210437        0.18398138        0.03879388        0.00488324        0.00178089        0.00994938        0.00116095        0.00264430
      89         -0.247119        2.000000        0.00653775        0.03305101        0.10346898        0.02674313        0.00252487        0.00079044        0.00666864        0.00058201        0.00242623
      90         -0.246181        2.000000        0.01117489        0.04513489        0.15299564        0.04072705        0.00345688        0.00125857        0.01481704        0.00135732        0.00277800
      91         -0.245460        2.000000        0.00763513        0.03227490        0.20253208        0.06981709        0.00444659        0.00162289        0.02215702        0.00194858        0.00216744
      92         -0.244686        2.000000        0.00964011        0.03704448        0.14074778        0.05502747        0.00356215        0.00167333        0.01308938        0.00282346        0.00211564
      93         -0.244109        2.000000        0.00468446        0.02715257        0.06596677        0.02238460        0.00092564        0.00124597        0.01084364        0.00086588        0.00145224
      94         -0.242891        2.000000        0.01078728        0.05659417        0.13031685        0.03522331        0.00203608        0.00196287        0.01103818        0.00217053        0.00373903
      95         -0.242170        2.000000        0.00769105        0.06627209        0.16920554        0.05773656        0.00294189        0.00154958        0.01021203        0.00262889        0.00307687
      96         -0.241865        2.000000        0.00717662        0.06480568        0.17679537        0.06418434        0.00315037        0.00375006        0.01760536        0.00201687        0.00355813
      97         -0.241204        2.000000        0.00961933        0.04074356        0.16839243        0.06439206        0.00369161        0.00126613        0.01206266        0.00282907        0.00362117
      98         -0.240517        2.000000        0.00811464        0.04204999        0.23421506        0.05249381        0.00340681        0.00333548        0.02293586        0.00154577        0.00344888
      99         -0.239548        2.000000        0.00860404        0.04142203        0.08675054        0.02326310        0.00190928        0.00106608        0.00928515        0.00126042        0.00253819
     100         -0.238312        2.000000        0.01289804        0.05104278        0.19930504        0.15575733        0.00606654        0.00229366        0.01919037        0.00206587        0.00663354
     101         -0.237733        2.000000        0.00564138        0.03674099        0.13048754        0.03973909        0.00170101        0.00207118        0.01032544        0.00187116        0.00260354
     102         -0.236853        2.000000        0.00578040        0.01424012        0.07069392        0.02854270        0.00177835        0.00091076        0.00748357        0.00114154        0.00134535
     103         -0.236121        2.000000        0.01311488        0.07970021        0.14612139        0.10184771        0.00420913        0.00271036        0.02067672        0.00364328        0.00398490
     104         -0.234973        2.000000        0.00515971        0.03396276        0.14891520        0.06628191        0.00180000        0.00287775        0.01830700        0.00284584        0.00189625
     105         -0.234300        2.000000        0.01319779        0.05026225        0.15310284        0.09899198        0.00431194        0.00287811        0.01756546        0.00172512        0.00366124
     106         -0.233459        2.000000        0.00851097        0.06222135        0.14760518        0.08291597        0.00288288        0.00178873        0.01859044        0.00254230        0.00301451
     107         -0.232386        2.000000        0.01247809        0.08113101        0.17724634        0.06599088        0.00263605        0.00248624        0.02569124        0.00268106        0.00569908
     108         -0.231694        2.000000        0.00801942        0.05459006        0.19705224        0.05852416        0.00533614        0.00281701        0.02063480        0.00370026        0.00271921
     109         -0.231393        2.000000        0.00827701        0.04720811        0.17456552        0.04518934        0.00285390        0.00271236        0.02267609        0.00251880        0.00283329
     110         -0.230796        2.000000        0.01025317        0.07443869        0.15786452        0.09398559        0.00515226        0.00287461        0.01636723        0.00256058        0.00364039
     111         -0.229537        2.000000        0.01673888        0.07288935        0.12956707        0.10073356        0.00561620        0.00332179        0.01077488        0.00282106        0.00341781
     112         -0.229123        2.000000        0.01168302        0.06509558        0.17163322        0.06385502        0.00725550        0.00174878        0.01679439        0.00343765        0.00333860
     113         -0.227577        2.000000        0.00900548        0.05454117        0.17968420        0.05628187        0.00480363        0.00252040        0.01709797        0.00341632        0.00501432
     114         -0.226808        2.000000        0.02406980        0.11285035        0.15322944        0.09430165        0.00671031        0.00173373        0.01360665        0.00274551        0.00750684
     115         -0.226086        2.000000        0.02632665        0.15073340        0.18824988        0.04107556        0.00371252        0.00395689        0.02000108        0.00246999        0.01100034
     116         -0.225165        2.000000        0.01427545        0.09286386        0.16248248        0.08008827        0.00440717        0.00253961        0.01663385        0.00406564        0.00462420
     117         -0.224589        2.000000        0.02904899        0.07830311        0.14301020        0.12378631        0.01024036        0.00147859        0.01358493        0.00222510        0.00745301
     118         -0.223908        2.000000        0.02300256        0.16006060        0.14749756        0.14450327        0.01221828        0.00469515        0.01474942        0.00237672        0.00798460
     119         -0.222164        2.000000        0.02737360        0.13456761        0.17431499        0.12665339        0.00916693        0.00263542        0.01438701        0.00293499        0.01033147
     120         -0.221684        2.000000        0.01485511        0.10325768        0.11373658        0.07443289        0.00534225        0.00275129        0.01109840        0.00222548        0.00673446
     121         -0.220507        2.000000        0.00453994        0.05781185        0.07118718        0.03976886        0.00234164        0.00190245        0.00807571        0.00088351        0.00342556
     122         -0.219695        2.000000        0.01038190        0.05240587        0.17998687        0.09594482        0.00490956        0.00362294        0.02002002        0.00278640        0.00600797
     123         -0.219070        2.000000        0.02465781        0.12044442        0.18751535        0.12718086        0.01170333        0.00243591        0.01816241        0.00492437        0.00517988
     124         -0.218031        2.000000        0.02304752        0.11874372        0.23697282        0.08215492        0.00614193        0.00255360        0.01947022        0.00374869        0.01114695
     125         -0.217439        2.000000        0.02022678        0.12078780        0.22583677        0.14343030        0.00616498        0.00316381        0.02757434        0.00540299        0.00896382
     126         -0.214945        2.000000        0.01453575        0.08165879        0.15474755        0.11787640        0.00568298        0.00393652        0.02222613        0.00305199        0.00778794
     127         -0.212703        2.000000        0.03244727        0.08478336        0.22342798        0.19281753        0.01707653        0.00445288        0.02515826        0.00401777        0.00976602
     128         -0.211691        2.000000        0.01063230        0.14519535        0.21387318        0.12692717        0.00757870        0.00567545        0.03741682        0.00587480        0.00591415
     129         -0.209401        2.000000        0.02655365        0.13476165        0.22083726        0.18437421        0.01322701        0.00469932        0.02383276        0.00656713        0.01207687
     130         -0.208277        2.000000        0.01629686        0.08683029        0.23134918        0.09263089        0.00816657        0.00396213        0.03354499        0.00465398        0.00764889
     131         -0.205349        2.000000        0.01837564        0.22409793        0.20599698        0.16931937        0.01055477        0.00754189        0.02218167        0.00696158        0.01622656
     132         -0.204428        2.000000        0.01440746        0.14331663        0.19512788        0.14214967        0.00648325        0.00501436        0.03271549        0.00798577        0.01111311
     133         -0.202242        2.000000        0.02528163        0.17145607        0.24237679        0.10573860        0.01183925        0.00524554        0.03287621        0.00739975        0.01194749
     134         -0.199443        2.000000        0.01336191        0.26168949        0.17935567        0.21339163        0.01509198        0.00929032        0.01765003        0.01026152        0.01095534
     135         -0.198647        2.000000        0.02750973        0.17342396        0.21507723        0.22123382        0.01814930        0.00760651        0.02790132        0.00806174        0.01218686
     136         -0.197107        2.000000        0.01561826        0.15706659        0.23967299        0.18265723        0.00809560        0.00950523        0.03518037        0.00646810        0.01392891
     137         -0.196106        2.000000        0.02220338        0.22689687        0.21123729        0.18757817        0.00988720        0.00960304        0.02474680        0.00993692        0.01807957
     138         -0.195269        2.000000        0.02134439        0.24195086        0.20676672        0.16891975        0.01674632        0.01334152        0.02196150        0.00833448        0.01168879
     139         -0.190053        2.000000        0.00042741        0.00568331        0.00669372        0.00305110        0.00028859        0.00023908        0.00098279        0.00018825        0.00034717
     140         -0.188593        2.000000        0.00091713        0.00517053        0.01316970        0.00571368        0.00041142        0.00033268        0.00217926        0.00020536        0.00062177
     141         -0.185685        2.000000        0.00023943        0.00216060        0.00334391        0.00223640        0.00017279        0.00011451        0.00053868        0.00008528        0.00013013
     142         -0.172790        2.000000        0.00003543        0.00037848        0.00088701        0.00035896        0.00002046        0.00001888        0.00010251        0.00001905        0.00003036
     143         -0.168363        2.000000        0.00003493        0.00054160        0.00052418        0.00112733        0.00003287        0.00002495        0.00003257        0.00004984        0.00002767
     144         -0.165731        2.000000        0.00012527        0.00135863        0.00128382        0.01796563        0.00020506        0.00005983        0.00010821        0.00047918        0.00008623