# Projected DOS for atomic kind H at iteration step i = 0, E(Fermi) =    -0.093733 a.u.
#     MO Eigenvalue [a.u.]      Occupation                 s                py                pz                px
       1         -0.558194        2.000000        0.11029805        0.00098888        0.07958085        0.00072343
       2         -0.546126        2.000000        0.15204618        0.00059184        0.11726154        0.00038304
       3         -0.537042        2.000000        0.10164474        0.00862327        0.07297040        0.00318757
       4         -0.535109        2.000000        0.10093287        0.00416714        0.07069870        0.00849268
       5         -0.530668        2.000000        0.10105447        0.00343591        0.07169328        0.00911283
       6         -0.529195        2.000000        0.11151324        0.00784574        0.06409564        0.00573283
       7         -0.527083        2.000000        0.10918774        0.01121233        0.06511880        0.00414187
       8         -0.526880        2.000000        0.10742975        0.00668620        0.08886696        0.00300183
       9         -0.523626        2.000000        0.11362091        0.00541897        0.07458349        0.00902124
      10         -0.521994        2.000000        0.10292494        0.00423002        0.08052708        0.00882904
      11         -0.520490        2.000000        0.11219242        0.00330309        0.08803843        0.00736855
      12         -0.518361        2.000000        0.11122001        0.00576057        0.08700009        0.00689208
      13         -0.515621        2.000000        0.12059910        0.00681951        0.08091122        0.00605188
      14         -0.512922        2.000000        0.11755848        0.00986268        0.07611737        0.00472013
      15         -0.490324        2.000000        0.10903578        0.01070080        0.05951904        0.00498815
      16         -0.489034        2.000000        0.10624347        0.00506125        0.05873605        0.01124177
      17         -0.484280        2.000000        0.11343520        0.00547216        0.05830623        0.00838669
      18         -0.483279        2.000000        0.11174894        0.00937683        0.05560379        0.00989473
      19         -0.482339        2.000000        0.11398862        0.00868689        0.05201338        0.00851720
      20         -0.480759        2.000000        0.10807775        0.00921080        0.06337741        0.00412577
      21         -0.479224        2.000000        0.11094272        0.00507819        0.06127334        0.00665262
      22         -0.478646        2.000000        0.11449356        0.00909826        0.05817339        0.00418751
      23         -0.477983        2.000000        0.11339442        0.00625582        0.05741664        0.01070340
      24         -0.477126        2.000000        0.11336838        0.00740278        0.05941288        0.00502325
      25         -0.475346        2.000000        0.11821584        0.00427218        0.05763859        0.00917202
      26         -0.473416        2.000000        0.11763865        0.00926116        0.05538329        0.00518879
      27         -0.472550        2.000000        0.11740977        0.00714583        0.05580731        0.00694366
      28         -0.471309        2.000000        0.12099006        0.00521687        0.05420619        0.00932714
      29         -0.470335        2.000000        0.12026918        0.01090137        0.05412755        0.00366082
      30         -0.469208        2.000000        0.11584970        0.00498905        0.06035544        0.01076514
      31         -0.467813        2.000000        0.11577227        0.00720275        0.05579764        0.00724941
      32         -0.463887        2.000000        0.12297078        0.00510968        0.05500180        0.00994341
      33         -0.423030        2.000000        0.17210368        0.00630637        0.03807367        0.01397651
      34         -0.419660        2.000000        0.16900746        0.00774494        0.03852697        0.01240546
      35         -0.418295        2.000000        0.17235766        0.01476699        0.03598913        0.00533957
      36         -0.413759        2.000000        0.17831416        0.00564582        0.03706732        0.00724250
      37         -0.412694        2.000000        0.17799912        0.00912775        0.04010029        0.00376418
      38         -0.411190        2.000000        0.17327165        0.00504816        0.03986758        0.00656272
      39         -0.410704        2.000000        0.17020997        0.00429386        0.03622539        0.00853821
      40         -0.409397        2.000000        0.18125927        0.00535234        0.04090426        0.00517271
      41         -0.406730        2.000000        0.18642305        0.00422820        0.03917153        0.00694228
      42         -0.406489        2.000000        0.18982185        0.00466696        0.03706183        0.00399904
      43         -0.404407        2.000000        0.19320039        0.00797326        0.03990147        0.00454542
      44         -0.403538        2.000000        0.18846957        0.00529327        0.04005080        0.00476782
      45         -0.402851        2.000000        0.18744889        0.00529770        0.04170160        0.00668390
      46         -0.402716        2.000000        0.19081721        0.00354160        0.03853458        0.00700366
      47         -0.401430        2.000000        0.19276334        0.00567672        0.03890599        0.00449366
      48         -0.400365        2.000000        0.18708466        0.00439225        0.03817077        0.00662990
      49         -0.398896        2.000000        0.18773519        0.00665716        0.04183690        0.00666813
      50         -0.396101        2.000000        0.19238607        0.00444897        0.03548949        0.00654709
      51         -0.385406        2.000000        0.30811700        0.00271478        0.02472273        0.00304648
      52         -0.381089        2.000000        0.31171486        0.00465852        0.02333725        0.00248452
      53         -0.378948        2.000000        0.32126242        0.00134901        0.01482485        0.00221642
      54         -0.377043        2.000000        0.31121962        0.00274409        0.01701263        0.00293602
      55         -0.375937        2.000000        0.31275042        0.00268143        0.01846080        0.00374735
      56         -0.374288        2.000000        0.30876061        0.00173029        0.01784460        0.00483029
      57         -0.373242        2.000000        0.31409783        0.00242225        0.01995051        0.00231904
      58         -0.366323        2.000000        0.30676769        0.00198291        0.03936567        0.00171984
      59         -0.365015        2.000000        0.29473287        0.00273194        0.04236887        0.00243194
      60         -0.363803        2.000000        0.29743535        0.00256636        0.04227839        0.00258436
      61         -0.363141        2.000000        0.29341567        0.00195745        0.04572796        0.00271784
      62         -0.361793        2.000000        0.30093298        0.00178523        0.04516763        0.00464565
      63         -0.358506        2.000000        0.29169237        0.00331138        0.04868553        0.00282928
      64         -0.351582        2.000000        0.30708894        0.00213744        0.04794158        0.00228217
      65         -0.280223        2.000000        0.23263515        0.01039545        0.00220801        0.02509296
      66         -0.279219        2.000000        0.23803989        0.00747910        0.00145376        0.02408734
      67         -0.276989        2.000000        0.22152409        0.02457818        0.00134720        0.00825192
      68         -0.273401        2.000000        0.21140197        0.01458145        0.00576823        0.02589151
      69         -0.271079        2.000000        0.20544315        0.01779592        0.00532099        0.02137490
      70         -0.269577        2.000000        0.20933778        0.01907154        0.00526133        0.02238948
      71         -0.267496        2.000000        0.19598963        0.01771774        0.00308578        0.01938097
      72         -0.265880        2.000000        0.23286178        0.01678470        0.00342621        0.02080379
      73         -0.264411        2.000000        0.22155258        0.01252516        0.00266352        0.02697954
      74         -0.262700        2.000000        0.21330586        0.01585916        0.00438802        0.02064106
      75         -0.262073        2.000000        0.22246512        0.02147007        0.00403781        0.01176786
      76         -0.261494        2.000000        0.21417917        0.01724852        0.00432652        0.01877206
      77         -0.258804        2.000000        0.22317441        0.01202272        0.00315066        0.01440458
      78         -0.257210        2.000000        0.20507770        0.01451814        0.00484899        0.01655608
      79         -0.256430        2.000000        0.22866862        0.01470226        0.00461295        0.01490023
      80         -0.255913        2.000000        0.26244768        0.01339101        0.00699078        0.01170418
      81         -0.254711        2.000000        0.20415061        0.01314464        0.00900666        0.01539266
      82         -0.254038        2.000000        0.24889967        0.01826604        0.00549378        0.00930183
      83         -0.252370        2.000000        0.21225675        0.02245575        0.00533868        0.01268362
      84         -0.251191        2.000000        0.23894450        0.01246094        0.00609531        0.01744579
      85         -0.250634        2.000000        0.25166973        0.01547092        0.00792330        0.01350524
      86         -0.250054        2.000000        0.20553749        0.01082685        0.00686119        0.01700129
      87         -0.249303        2.000000        0.21320114        0.01676293        0.00472179        0.01853183
      88         -0.248549        2.000000        0.21380894        0.01481814        0.00400280        0.01437155
      89         -0.247655        2.000000        0.20154298        0.01775780        0.00499399        0.02161417
      90         -0.247023        2.000000        0.22070507        0.01101720        0.00619525        0.01570284
      91         -0.246179        2.000000        0.24617610        0.01711821        0.00790344        0.01142771
      92         -0.245810        2.000000        0.19627764        0.01826138        0.00935166        0.01728148
      93         -0.244518        2.000000        0.20673917        0.01649373        0.00718617        0.02041252
      94         -0.243501        2.000000        0.28593564        0.00695978        0.00799989        0.01636327
      95         -0.243286        2.000000        0.18006550        0.01865937        0.00766801        0.01564550
      96         -0.242325        2.000000        0.23168878        0.01658291        0.00707306        0.01300491
      97         -0.242017        2.000000        0.22962986        0.01598140        0.00781738        0.01303899
      98         -0.240629        2.000000        0.19629794        0.01478200        0.00704704        0.01869980
      99         -0.239867        2.000000        0.30094288        0.00897666        0.00884099        0.01110022
     100         -0.238448        2.000000        0.26756737        0.01410509        0.00976108        0.01049559
     101         -0.237924        2.000000        0.26777163        0.00974895        0.00820791        0.01242822
     102         -0.237741        2.000000        0.19702781        0.01208385        0.00711402        0.01615132
     103         -0.237193        2.000000        0.26423978        0.01516427        0.00795685        0.01150796
     104         -0.234904        2.000000        0.25852397        0.01115642        0.01076260        0.01517744
     105         -0.234061        2.000000        0.21825507        0.01684291        0.00539419        0.01408565
     106         -0.233220        2.000000        0.19902850        0.01544236        0.00594315        0.01476866
     107         -0.232280        2.000000        0.20971330        0.01502980        0.00641532        0.01470581
     108         -0.231865        2.000000        0.25917209        0.01145167        0.01255402        0.01369410
     109         -0.231576        2.000000        0.25996872        0.00967486        0.01165637        0.01803146
     110         -0.231039        2.000000        0.23468341        0.01418824        0.00488809        0.01208715
     111         -0.229704        2.000000        0.27782534        0.00929793        0.00750794        0.01324557
     112         -0.228595        2.000000        0.25489086        0.01492824        0.00767721        0.00953146
     113         -0.227998        2.000000        0.20163696        0.01768524        0.00631076        0.01261158
     114         -0.226658        2.000000        0.19877675        0.01197188        0.00665310        0.01660352
     115         -0.225867        2.000000        0.20541640        0.01368109        0.00512903        0.01693657
     116         -0.225216        2.000000        0.17286685        0.01405113        0.00676647        0.01945255
     117         -0.224530        2.000000        0.18464294        0.01725808        0.00804716        0.01383285
     118         -0.223993        2.000000        0.16911703        0.02197747        0.00596917        0.01035272
     119         -0.222858        2.000000        0.24053722        0.01655059        0.00615228        0.01316094
     120         -0.222538        2.000000        0.26722124        0.01294963        0.00735385        0.01197299
     121         -0.220898        2.000000        0.18327813        0.02297207        0.00609031        0.01544983
     122         -0.220524        2.000000        0.21866407        0.01139438        0.00620352        0.01892893
     123         -0.219407        2.000000        0.20996271        0.01709804        0.00643925        0.01485849
     124         -0.218356        2.000000        0.21613035        0.01407885        0.00797334        0.01772848
     125         -0.215066        2.000000        0.19732550        0.01649199        0.00635756        0.01728118
     126         -0.213467        2.000000        0.31347110        0.01262880        0.00863200        0.00930162
     127         -0.213041        2.000000        0.28712139        0.01116317        0.00546865        0.01058582
     128         -0.212024        2.000000        0.27706630        0.00923283        0.00741814        0.01214013
     129         -0.208556        2.000000        0.26350044        0.01255650        0.00747240        0.01118192
     130         -0.208499        2.000000        0.25281551        0.01390139        0.00999051        0.01271654
     131         -0.207114        2.000000        0.23947168        0.02023841        0.00662792        0.00743458
     132         -0.204326        2.000000        0.13575293        0.01749819        0.00737711        0.02158355
     133         -0.203381        2.000000        0.20356339        0.01828951        0.00905405        0.01528916
     134         -0.201438        2.000000        0.23387394        0.01068674        0.00965842        0.01988615
     135         -0.199970        2.000000        0.17731817        0.01415476        0.00709507        0.02106718
     136         -0.198113        2.000000        0.32009077        0.00944280        0.01398042        0.00878402
     137         -0.195768        2.000000        0.17088408        0.02019134        0.00964885        0.01637567
     138         -0.195263        2.000000        0.12751313        0.02757342        0.00747536        0.01417732
     139         -0.194178        2.000000        0.06310290        0.02819760        0.00315823        0.01325819
     140         -0.191476        2.000000        0.02756899        0.00891326        0.00167279        0.03464687
     141         -0.188755        2.000000        0.01746495        0.03276010        0.00159918        0.01174271
     142         -0.176832        2.000000        0.01126842        0.00417968        0.00165220        0.03757615
     143         -0.171164        2.000000        0.00482955        0.02887857        0.00138518        0.01431448
     144         -0.170171        2.000000        0.00828733        0.03307899        0.00149111        0.01076135
     145         -0.167946        2.000000        0.00473213        0.03192181        0.00105074        0.01140879
     146         -0.167119        2.000000        0.00631855        0.02478170        0.00178927        0.01886742
     147         -0.163650        2.000000        0.00629082        0.00356703        0.00179659        0.04711828
     148         -0.161868        2.000000        0.00302691        0.01192281        0.00126443        0.03009392
     149         -0.160259        2.000000        0.00864590        0.03896984        0.00291143        0.01202041
     150         -0.157779        2.000000        0.00647170        0.03958062        0.00211098        0.01256926
     151         -0.143116        2.000000        0.00342427        0.00700776        0.00144913        0.04109239
     152         -0.138292        2.000000        0.00222072        0.00267395        0.00098184        0.03741466
     153         -0.137945        2.000000        0.00344906        0.03367965        0.00195606        0.01586404
     154         -0.136340        2.000000        0.00262212        0.01819993        0.00121617        0.03014626
     155         -0.136290        2.000000        0.00228841        0.03959961        0.00087153        0.00279400
     156         -0.133468        2.000000        0.00449957        0.03648151        0.00170244        0.01275899
     157         -0.129754        2.000000        0.00285874        0.02562879        0.00168825        0.02525339
     158         -0.128031        2.000000        0.00287349        0.03413883        0.00164679        0.01641795
     159         -0.101037        2.000000        0.00307005        0.00152808        0.00066613        0.04449524
     160         -0.093733        2.000000        0.00274845        0.04743357        0.00100444        0.00139195
     161         -0.027124        0.000000        0.03158172        0.00117717        0.01751332        0.00155333
     162         -0.019352        0.000000        0.01182790        0.00385675        0.01353471        0.00222200
     163         -0.018618        0.000000        0.00443598        0.00813972        0.01625997        0.00831803
     164         -0.016217        0.000000        0.00485218        0.01001456        0.01369487        0.01156296
     165         -0.013714        0.000000        0.00597230        0.01196473        0.01563026        0.01381011
     166         -0.006238        0.000000        0.01324927        0.02306619        0.01576880        0.00868301
     167         -0.004913        0.000000        0.01321868        0.01239587        0.01382116        0.02240320
     168         -0.001057        0.000000        0.01436234        0.01175928        0.01591267        0.02479603
     169         -0.000214        0.000000        0.01365169        0.01702555        0.02098276        0.01633585
     170          0.001460        0.000000        0.01355303        0.01245769        0.01546538        0.02472776
     171          0.002919        0.000000        0.01557894        0.01040834        0.01844557        0.02108665
     172          0.003692        0.000000        0.01195429        0.02033699        0.01294850        0.02246789
     173          0.004977        0.000000        0.01877136        0.02474120        0.02158210        0.01589043
     174          0.007622        0.000000        0.01276100        0.02449111        0.01563886        0.00874482
     175          0.017408        0.000000        0.00869073        0.01843985        0.02061873        0.03220301
     176          0.022191        0.000000        0.01040663        0.03539608        0.02252981        0.01353154
     177          0.022947        0.000000        0.01138696        0.02690702        0.01987601        0.02742023
     178          0.026908        0.000000        0.01042907        0.02079337        0.02487888        0.02567929
     179          0.028083        0.000000        0.01364011        0.02250957        0.02623465        0.02697603
     180          0.029876        0.000000        0.01783369        0.01640057        0.03106617        0.03268322
     181          0.049185        0.000000        0.01365176        0.02416830        0.01593546        0.05286152
     182          0.051192        0.000000        0.03760482        0.05576704        0.04060343        0.08486425
     183          0.052738        0.000000        0.06685793        0.07564717        0.07366164        0.11287165
     184          0.054358        0.000000        0.02970082        0.04299184        0.02993998        0.08478430
     185          0.060169        0.000000        0.07400215        0.15648694        0.06868270        0.05337071
     186          0.064219        0.000000        0.07717082        0.07971600        0.05337715        0.07793022
     187          0.068651        0.000000        0.06862320        0.04375104        0.06210588        0.11314286
     188          0.070700        0.000000        0.06300123        0.05709849        0.05298048        0.08909575
     189          0.072252        0.000000        0.06365005        0.04817848        0.06474816        0.11268697
     190          0.073177        0.000000        0.06810755        0.10789801        0.07063451        0.06679180
     191          0.074919        0.000000        0.07571124        0.07079584        0.05556582        0.08748185
     192          0.076768        0.000000        0.06799744        0.06674995        0.04901871        0.08558724
     193          0.081111        0.000000        0.05567766        0.08707518        0.05352404        0.09097151
     194          0.082799        0.000000        0.06687716        0.10156257        0.06122830        0.07292181
     195          0.083958        0.000000        0.06925026        0.09139477        0.06711953        0.08442757
     196          0.085102        0.000000        0.05584151        0.09539188        0.06683276        0.04279684
     197          0.086614        0.000000        0.05359869        0.06628890        0.04612436        0.06677300
     198          0.087852        0.000000        0.05131404        0.10412113        0.06864708        0.04979313
     199          0.090635        0.000000        0.04419741        0.07541923        0.06277568        0.05465536
     200          0.091950        0.000000        0.09253456        0.05699004        0.06389341        0.06665057
     201          0.094421        0.000000        0.06011062        0.07199564        0.05457713        0.07422815
     202          0.095183        0.000000        0.06322374        0.05292652        0.04822189        0.06518846
     203          0.096426        0.000000        0.06353002        0.06499378        0.04581364        0.05137733
     204          0.097522        0.000000        0.06524945        0.04149653        0.04100276        0.07006267
     205          0.098071        0.000000        0.06571169        0.05147953        0.04111825        0.06089376
     206          0.100530        0.000000        0.07384740        0.04524776        0.04794261        0.08086823
     207          0.101033        0.000000        0.08620514        0.07401667        0.05384771        0.05949245
     208          0.102509        0.000000        0.06738927        0.07756419        0.05065349        0.05886610
     209          0.103392        0.000000        0.07875437        0.03948524        0.04292055        0.04855073
     210          0.104687        0.000000        0.06442271        0.06560658        0.05198630        0.07085346
