# Projected DOS for atomic kind H at iteration step i = 0, E(Fermi) =    -0.095283 a.u.
#     MO Eigenvalue [a.u.]      Occupation                 s                py                pz                px
       1         -0.558910        2.000000        0.11101179        0.00147406        0.08063956        0.00102694
       2         -0.542344        2.000000        0.14957325        0.00083741        0.11483180        0.00037755
       3         -0.538016        2.000000        0.10234872        0.00542684        0.07244595        0.00738485
       4         -0.535185        2.000000        0.10252965        0.00798234        0.07280340        0.00447631
       5         -0.530824        2.000000        0.10331715        0.00348811        0.07282479        0.00969849
       6         -0.529301        2.000000        0.10609835        0.00663665        0.07170042        0.00546036
       7         -0.527187        2.000000        0.10249949        0.01210774        0.06974041        0.00332602
       8         -0.522524        2.000000        0.11394093        0.00596289        0.07421990        0.00781196
       9         -0.521857        2.000000        0.10691683        0.00565265        0.07833541        0.00788172
      10         -0.517869        2.000000        0.11303886        0.00709908        0.08310271        0.00528198
      11         -0.516387        2.000000        0.11249510        0.00385095        0.08319108        0.00814500
      12         -0.515486        2.000000        0.11158342        0.00539072        0.08105204        0.00728223
      13         -0.512394        2.000000        0.11568304        0.00630709        0.07918915        0.00661454
      14         -0.509686        2.000000        0.11701574        0.00954325        0.07676736        0.00419408
      15         -0.491612        2.000000        0.10755637        0.01003715        0.06060460        0.00562293
      16         -0.487339        2.000000        0.11103661        0.00563270        0.05878165        0.01273977
      17         -0.486582        2.000000        0.11458085        0.00677914        0.05662885        0.01216387
      18         -0.483412        2.000000        0.11053915        0.00980195        0.05743438        0.00741217
      19         -0.481866        2.000000        0.11591941        0.00913968        0.05758115        0.00798509
      20         -0.480904        2.000000        0.11854740        0.00814414        0.05968744        0.00494894
      21         -0.480135        2.000000        0.11860560        0.00656932        0.05967519        0.00811964
      22         -0.476655        2.000000        0.11193709        0.00781201        0.05675483        0.00725651
      23         -0.475340        2.000000        0.11337111        0.00954695        0.05905827        0.00647196
      24         -0.473357        2.000000        0.11061625        0.00852615        0.05733426        0.00649279
      25         -0.470899        2.000000        0.11690149        0.00637658        0.05402289        0.00753491
      26         -0.470201        2.000000        0.11775075        0.00590473        0.06102558        0.00924611
      27         -0.470017        2.000000        0.11601035        0.00974536        0.05467939        0.00417799
      28         -0.468892        2.000000        0.11845383        0.00804500        0.05427778        0.00551762
      29         -0.467993        2.000000        0.11542756        0.00427732        0.05426696        0.00811192
      30         -0.465562        2.000000        0.11675281        0.00500269        0.05443809        0.00849174
      31         -0.464452        2.000000        0.11326334        0.00974295        0.05398972        0.00413716
      32         -0.463748        2.000000        0.12266644        0.00482732        0.05407036        0.00849625
      33         -0.423888        2.000000        0.17052108        0.00398011        0.04131462        0.01638805
      34         -0.421147        2.000000        0.17461376        0.00570914        0.04142071        0.01150770
      35         -0.418968        2.000000        0.18557570        0.01727989        0.03533014        0.00343733
      36         -0.412710        2.000000        0.19684970        0.00763611        0.03926238        0.00555602
      37         -0.410915        2.000000        0.16776717        0.00593065        0.03653048        0.00667331
      38         -0.410452        2.000000        0.18810589        0.00809333        0.03640716        0.00984405
      39         -0.408533        2.000000        0.17766330        0.00780182        0.03591903        0.00602577
      40         -0.408044        2.000000        0.18685271        0.00595270        0.03621914        0.00749814
      41         -0.407120        2.000000        0.17046276        0.00478338        0.03962837        0.00670175
      42         -0.406687        2.000000        0.19190825        0.00539059        0.04259386        0.00494239
      43         -0.405987        2.000000        0.18904890        0.00534744        0.04423054        0.00568328
      44         -0.403561        2.000000        0.19373216        0.00754735        0.03830624        0.00402467
      45         -0.401387        2.000000        0.18686073        0.00473104        0.04135772        0.00628655
      46         -0.399069        2.000000        0.18721778        0.00620989        0.04025858        0.00605981
      47         -0.398189        2.000000        0.19100305        0.00567471        0.03652761        0.00649199
      48         -0.397604        2.000000        0.18751789        0.00574123        0.03831034        0.00469752
      49         -0.395129        2.000000        0.19180530        0.00487657        0.03554458        0.00528454
      50         -0.392723        2.000000        0.18697771        0.00536063        0.03673138        0.00394340
      51         -0.388260        2.000000        0.30307032        0.00416001        0.02404021        0.00367982
      52         -0.381440        2.000000        0.31704391        0.00374523        0.02021404        0.00343970
      53         -0.379559        2.000000        0.31440795        0.00312437        0.02057833        0.00313864
      54         -0.377361        2.000000        0.31106162        0.00426847        0.02470307        0.00336552
      55         -0.375513        2.000000        0.31352123        0.00200713        0.01871098        0.00462641
      56         -0.373603        2.000000        0.31490994        0.00533403        0.01657876        0.00133138
      57         -0.368905        2.000000        0.31371922        0.00212071        0.01868215        0.00429477
      58         -0.366323        2.000000        0.29708627        0.00230198        0.04143127        0.00340151
      59         -0.363880        2.000000        0.29614394        0.00244681        0.04279394        0.00211425
      60         -0.362389        2.000000        0.29205290        0.00219532        0.04493526        0.00294462
      61         -0.360834        2.000000        0.29737296        0.00220772        0.04572871        0.00276328
      62         -0.359504        2.000000        0.29626150        0.00292099        0.04182743        0.00166581
      63         -0.357104        2.000000        0.29276564        0.00206288        0.04311459        0.00182325
      64         -0.353973        2.000000        0.31820172        0.00112408        0.04993803        0.00130110
      65         -0.278799        2.000000        0.23292504        0.00908700        0.00166364        0.02431473
      66         -0.277596        2.000000        0.22834689        0.01078274        0.00148926        0.02773460
      67         -0.274050        2.000000        0.22536322        0.03273187        0.00162053        0.00475772
      68         -0.270972        2.000000        0.20711248        0.01719281        0.00556510        0.02563003
      69         -0.269979        2.000000        0.21556802        0.02561900        0.00433453        0.01986501
      70         -0.267879        2.000000        0.20931694        0.01169065        0.00369558        0.02430934
      71         -0.266623        2.000000        0.22714473        0.01139296        0.00299938        0.02492963
      72         -0.264330        2.000000        0.20914273        0.02203384        0.00392349        0.01360803
      73         -0.262865        2.000000        0.21178307        0.01389187        0.00472348        0.02184830
      74         -0.261631        2.000000        0.22021780        0.02025922        0.00483314        0.01395368
      75         -0.259875        2.000000        0.21363025        0.01703840        0.00404331        0.01850179
      76         -0.259576        2.000000        0.20056797        0.01293573        0.00340528        0.02449374
      77         -0.258097        2.000000        0.23533889        0.01042267        0.00453416        0.01486188
      78         -0.254796        2.000000        0.26222880        0.01672964        0.00677831        0.01011945
      79         -0.253816        2.000000        0.21648474        0.01273851        0.00439588        0.01696603
      80         -0.253383        2.000000        0.24148622        0.01660294        0.00581680        0.01091325
      81         -0.253074        2.000000        0.26201179        0.01859068        0.00481324        0.01147334
      82         -0.252348        2.000000        0.25784892        0.01409929        0.00644514        0.01087551
      83         -0.251518        2.000000        0.27143022        0.01395635        0.00602218        0.01056266
      84         -0.251214        2.000000        0.20935063        0.01568374        0.00578683        0.01586229
      85         -0.250347        2.000000        0.24750944        0.01642156        0.00691228        0.01073248
      86         -0.249766        2.000000        0.25121594        0.01337370        0.00877062        0.01522769
      87         -0.248700        2.000000        0.25217088        0.00984036        0.00777675        0.02002291
      88         -0.247819        2.000000        0.23444542        0.01887900        0.00602210        0.01160370
      89         -0.247150        2.000000        0.22310019        0.01268036        0.00650057        0.01949917
      90         -0.245897        2.000000        0.25108951        0.00931123        0.00915211        0.01509216
      91         -0.245496        2.000000        0.24610573        0.01289124        0.01205171        0.01647784
      92         -0.244792        2.000000        0.24184447        0.01403859        0.01232972        0.01487220
      93         -0.244175        2.000000        0.21030220        0.02209650        0.00784854        0.00742185
      94         -0.242494        2.000000        0.21172758        0.02164641        0.00815777        0.01233124
      95         -0.242169        2.000000        0.20785844        0.01383811        0.00704813        0.01642696
      96         -0.241806        2.000000        0.21295884        0.01648490        0.00657491        0.01930477
      97         -0.241454        2.000000        0.24595054        0.01034612        0.00664212        0.01748923
      98         -0.240703        2.000000        0.28378995        0.01122685        0.01144555        0.00893959
      99         -0.239651        2.000000        0.17972082        0.01692617        0.00681227        0.01584006
     100         -0.238197        2.000000        0.23063013        0.01279018        0.00879088        0.01595343
     101         -0.237885        2.000000        0.17625845        0.01635759        0.00727496        0.02249983
     102         -0.236935        2.000000        0.23717244        0.01356401        0.00721274        0.01004448
     103         -0.236301        2.000000        0.24974549        0.01240012        0.00894406        0.01346078
     104         -0.235257        2.000000        0.26216071        0.00988245        0.00722588        0.01340864
     105         -0.234176        2.000000        0.21898546        0.00904766        0.00612397        0.01684085
     106         -0.233296        2.000000        0.20637676        0.01723740        0.01134478        0.01226750
     107         -0.232018        2.000000        0.22063802        0.01534892        0.00622965        0.01338504
     108         -0.231475        2.000000        0.29991591        0.00825499        0.00812813        0.00886713
     109         -0.231207        2.000000        0.23324376        0.01263413        0.00847783        0.01548081
     110         -0.230699        2.000000        0.23985481        0.01245586        0.00774021        0.01530951
     111         -0.229506        2.000000        0.24108713        0.01342915        0.00662163        0.01450616
     112         -0.228964        2.000000        0.20879755        0.01537392        0.00598343        0.01661475
     113         -0.227457        2.000000        0.25474865        0.01161734        0.00556397        0.01317023
     114         -0.226740        2.000000        0.17986747        0.01784761        0.00834588        0.01406586
     115         -0.226077        2.000000        0.22107025        0.01861596        0.00670534        0.00948503
     116         -0.224945        2.000000        0.18560763        0.01405125        0.00917708        0.01747779
     117         -0.224474        2.000000        0.24024651        0.01018697        0.00655246        0.01498108
     118         -0.223367        2.000000        0.16568378        0.02024663        0.00800413        0.01724361
     119         -0.221859        2.000000        0.20544429        0.01493739        0.00777600        0.01863626
     120         -0.221541        2.000000        0.17656321        0.02122638        0.00632136        0.01116595
     121         -0.220215        2.000000        0.20210327        0.01486206        0.00632701        0.01329573
     122         -0.219752        2.000000        0.22742765        0.01569680        0.00518407        0.01233793
     123         -0.219112        2.000000        0.19349312        0.01557925        0.00560954        0.01723213
     124         -0.217814        2.000000        0.23442123        0.01653699        0.00681776        0.01110124
     125         -0.217095        2.000000        0.20854548        0.01295035        0.00664785        0.01640338
     126         -0.214446        2.000000        0.24139449        0.01414838        0.00705076        0.01276999
     127         -0.212588        2.000000        0.23024156        0.01035484        0.00775917        0.02013904
     128         -0.211908        2.000000        0.27138605        0.01309077        0.00887815        0.01091564
     129         -0.209188        2.000000        0.21105093        0.01252427        0.00694548        0.01717406
     130         -0.208233        2.000000        0.30404590        0.00898148        0.00847817        0.01240811
     131         -0.205288        2.000000        0.18753939        0.02126408        0.00750858        0.01286210
     132         -0.204175        2.000000        0.25572138        0.01288259        0.00973201        0.01049999
     133         -0.201681        2.000000        0.26240955        0.01474320        0.01256043        0.01121207
     134         -0.199083        2.000000        0.17594804        0.01798658        0.00969272        0.01959611
     135         -0.198244        2.000000        0.15950377        0.02098011        0.00975336        0.01858730
     136         -0.197362        2.000000        0.22736955        0.01526425        0.01261046        0.01713411
     137         -0.196361        2.000000        0.15987002        0.02030486        0.01191591        0.01680916
     138         -0.194993        2.000000        0.16992792        0.02327995        0.01039279        0.01563441
     139         -0.190467        2.000000        0.01318019        0.02695636        0.00131519        0.01449164
     140         -0.189246        2.000000        0.02662378        0.00568454        0.00186433        0.03537799
     141         -0.186057        2.000000        0.00912041        0.03274993        0.00127272        0.01061449
     142         -0.173582        2.000000        0.00255687        0.00371098        0.00075147        0.03550010
     143         -0.168781        2.000000        0.00283474        0.02659418        0.00104251        0.01452352
     144         -0.166171        2.000000        0.00585975        0.02297591        0.00192176        0.01888900
     145         -0.165266        2.000000        0.00285411        0.03282724        0.00090958        0.00987830
     146         -0.164750        2.000000        0.00603794        0.03188841        0.00129244        0.00920125
     147         -0.163707        2.000000        0.00773309        0.00301015        0.00208048        0.04928990
     148         -0.159763        2.000000        0.00269141        0.01550279        0.00138227        0.02838699
     149         -0.159627        2.000000        0.00858860        0.03472090        0.00295621        0.01589969
     150         -0.156497        2.000000        0.01328629        0.03859544        0.00474750        0.01279310
     151         -0.141640        2.000000        0.00246357        0.00925227        0.00167221        0.04153745
     152         -0.137343        2.000000        0.00451658        0.03109130        0.00236298        0.01860247
     153         -0.136126        2.000000        0.00144529        0.00129242        0.00063091        0.03725322
     154         -0.136025        2.000000        0.00420377        0.01766123        0.00186831        0.03245817
     155         -0.133310        2.000000        0.00496071        0.03463365        0.00220578        0.01474769
     156         -0.132527        2.000000        0.00225855        0.03924794        0.00106408        0.00101240
     157         -0.129816        2.000000        0.00294512        0.02118621        0.00218849        0.02872703
     158         -0.127618        2.000000        0.00448800        0.03790534        0.00205455        0.01454133
     159         -0.098954        2.000000        0.00304819        0.00116738        0.00116804        0.04719441
     160         -0.095283        2.000000        0.00420041        0.04647431        0.00090539        0.00147840
     161         -0.023270        0.000000        0.02602737        0.00208438        0.02215371        0.00184021
     162         -0.018199        0.000000        0.01488388        0.00312037        0.00871786        0.00259574
     163         -0.015339        0.000000        0.00528252        0.01097432        0.01782683        0.00877636
     164         -0.013437        0.000000        0.00533169        0.01155519        0.01713575        0.01205178
     165         -0.010558        0.000000        0.00464047        0.00960558        0.01604106        0.01493339
     166         -0.003304        0.000000        0.01098302        0.02117185        0.01646282        0.01360206
     167         -0.000803        0.000000        0.01259393        0.02113746        0.01715839        0.01723902
     168         -0.000606        0.000000        0.01241016        0.01848807        0.01428460        0.01556604
     169          0.001678        0.000000        0.01522545        0.01128866        0.01738398        0.02623882
     170          0.002776        0.000000        0.01462959        0.01968299        0.01524274        0.02451330
     171          0.004180        0.000000        0.01312773        0.01421385        0.01460797        0.02283233
     172          0.005472        0.000000        0.01387984        0.01242195        0.02171956        0.02455975
     173          0.007681        0.000000        0.01528274        0.02548986        0.01961618        0.01500961
     174          0.009572        0.000000        0.01283845        0.02560881        0.01716598        0.01135012
     175          0.017233        0.000000        0.00992643        0.01911909        0.02212390        0.02696658
     176          0.022690        0.000000        0.01093399        0.02717647        0.01993783        0.02855332
     177          0.023073        0.000000        0.00995387        0.04004017        0.02363324        0.01188695
     178          0.026583        0.000000        0.01001226        0.02008594        0.02265202        0.02869800
     179          0.028458        0.000000        0.01104958        0.02315510        0.02335606        0.03437500
     180          0.032042        0.000000        0.01786791        0.03022495        0.03248743        0.01873627
     181          0.048459        0.000000        0.05853275        0.05417106        0.05429059        0.11962493
     182          0.049082        0.000000        0.04511510        0.07971112        0.05181016        0.07401752
     183          0.053818        0.000000        0.03194153        0.08099409        0.03513554        0.03115379
     184          0.055683        0.000000        0.02623535        0.03215310        0.02387535        0.06638861
     185          0.057611        0.000000        0.06912688        0.10104932        0.06766498        0.10021269
     186          0.061843        0.000000        0.07550995        0.08655638        0.06672934        0.08477401
     187          0.068122        0.000000        0.07138149        0.08113737        0.07066652        0.08537893
     188          0.070671        0.000000        0.07453262        0.09736190        0.06282254        0.07384503
     189          0.071805        0.000000        0.06541332        0.08369755        0.05344336        0.07664426
     190          0.074132        0.000000        0.06620692        0.05990858        0.06462009        0.11605309
     191          0.076207        0.000000        0.06046447        0.07131347        0.05608746        0.09353198
     192          0.076616        0.000000        0.05839397        0.07593475        0.04959490        0.08154911
     193          0.081246        0.000000        0.06096478        0.14081448        0.05630366        0.04135947
     194          0.082598        0.000000        0.06269762        0.06407066        0.06158244        0.11492404
     195          0.083018        0.000000        0.06025948        0.07189345        0.06408090        0.08567584
     196          0.084633        0.000000        0.06112078        0.09241116        0.06622325        0.05496894
     197          0.085882        0.000000        0.04842658        0.13326299        0.07643015        0.05059943
     198          0.087979        0.000000        0.04826086        0.10388301        0.07073358        0.06237910
     199          0.090256        0.000000        0.05294419        0.06477318        0.04177865        0.05751246
     200          0.091572        0.000000        0.04842987        0.07088653        0.04768038        0.07072303
     201          0.094684        0.000000        0.07979868        0.07004804        0.04767083        0.05216923
     202          0.095922        0.000000        0.04285974        0.03781875        0.03506053        0.05158397
     203          0.097114        0.000000        0.07080409        0.06497504        0.04295932        0.07819090
     204          0.099092        0.000000        0.07427601        0.05253441        0.04510635        0.07341796
     205          0.099838        0.000000        0.08175685        0.04293174        0.06074850        0.07702466
     206          0.101214        0.000000        0.07673757        0.07944290        0.04727949        0.04415622
     207          0.101874        0.000000        0.09632228        0.06949381        0.05195278        0.04815425
     208          0.102289        0.000000        0.09594107        0.04955930        0.05867774        0.05636806
     209          0.102802        0.000000        0.08141929        0.05872518        0.05783681        0.08835426
     210          0.104653        0.000000        0.10028802        0.04902454        0.06269768        0.07244747
