# Projected DOS for atomic kind H at iteration step i = 0, E(Fermi) =    -0.096432 a.u.
#     MO Eigenvalue [a.u.]      Occupation                 s                py                pz                px
       1         -0.559353        2.000000        0.11038915        0.00141349        0.08104048        0.00112768
       2         -0.541506        2.000000        0.15279026        0.00081366        0.11324114        0.00037096
       3         -0.538026        2.000000        0.09782806        0.00520184        0.07366352        0.00715256
       4         -0.536187        2.000000        0.10634063        0.00716890        0.07370958        0.00522297
       5         -0.531559        2.000000        0.10332366        0.00561591        0.07311522        0.00665529
       6         -0.529879        2.000000        0.10658783        0.00652825        0.07156144        0.00647521
       7         -0.527213        2.000000        0.09942941        0.01095356        0.06814090        0.00468934
       8         -0.522108        2.000000        0.10983747        0.00349319        0.06913848        0.01139303
       9         -0.520456        2.000000        0.11035350        0.00747559        0.08403275        0.00477017
      10         -0.518026        2.000000        0.11677761        0.00743806        0.08162233        0.00494895
      11         -0.515973        2.000000        0.11842215        0.00403939        0.08297296        0.00853806
      12         -0.514093        2.000000        0.11638916        0.00605316        0.08158274        0.00695716
      13         -0.512223        2.000000        0.11881572        0.00568430        0.07971227        0.00747898
      14         -0.509128        2.000000        0.11838453        0.00999334        0.07714976        0.00398238
      15         -0.492368        2.000000        0.10874025        0.00967113        0.06113588        0.00591585
      16         -0.487780        2.000000        0.11349336        0.00686942        0.05914250        0.01047983
      17         -0.486383        2.000000        0.11065076        0.00635106        0.05624733        0.01325552
      18         -0.484430        2.000000        0.11042014        0.00965636        0.05679755        0.00707758
      19         -0.481812        2.000000        0.11237044        0.01032766        0.05744570        0.00745191
      20         -0.481044        2.000000        0.11985638        0.00489276        0.06216206        0.00595973
      21         -0.479353        2.000000        0.10946384        0.00811848        0.05627934        0.00917104
      22         -0.476105        2.000000        0.11843409        0.01018274        0.05533466        0.00622228
      23         -0.475068        2.000000        0.11247295        0.00721634        0.06126252        0.00647740
      24         -0.472665        2.000000        0.11844299        0.00746015        0.05613552        0.00787080
      25         -0.472224        2.000000        0.12234353        0.00764743        0.05450102        0.00840288
      26         -0.471181        2.000000        0.11766479        0.00650863        0.06253566        0.00749303
      27         -0.469242        2.000000        0.11904445        0.00870521        0.05583012        0.00458280
      28         -0.468934        2.000000        0.11625514        0.00967532        0.05219568        0.00625409
      29         -0.467397        2.000000        0.12120591        0.00481474        0.05575010        0.00702915
      30         -0.465234        2.000000        0.12362774        0.00838872        0.05464599        0.00460248
      31         -0.464981        2.000000        0.12084339        0.00554807        0.05440698        0.00924797
      32         -0.461873        2.000000        0.11980351        0.00667804        0.05414396        0.00742938
      33         -0.423621        2.000000        0.16771819        0.00482622        0.04086984        0.01571554
      34         -0.421650        2.000000        0.17313745        0.00586620        0.04248022        0.01082623
      35         -0.419205        2.000000        0.18415136        0.01600322        0.03524518        0.00567425
      36         -0.412485        2.000000        0.19580627        0.00519131        0.04085302        0.00686692
      37         -0.410207        2.000000        0.16893075        0.00621830        0.03530879        0.00791553
      38         -0.409751        2.000000        0.18210834        0.00696994        0.03595139        0.00873490
      39         -0.409706        2.000000        0.19338325        0.00553474        0.03998543        0.00573473
      40         -0.408230        2.000000        0.18397209        0.00814721        0.03879428        0.00425003
      41         -0.407456        2.000000        0.17401708        0.00865892        0.03688459        0.00567387
      42         -0.406674        2.000000        0.18369034        0.00718668        0.03916661        0.00464932
      43         -0.405068        2.000000        0.19268966        0.00552375        0.03963147        0.00701272
      44         -0.404742        2.000000        0.19439671        0.00627064        0.04010809        0.00384775
      45         -0.401447        2.000000        0.18832784        0.00675258        0.04369614        0.00479906
      46         -0.399191        2.000000        0.19442890        0.00737072        0.03779240        0.00592432
      47         -0.398129        2.000000        0.19055886        0.00410844        0.03902601        0.00626321
      48         -0.397803        2.000000        0.19469560        0.00526280        0.03649438        0.00602615
      49         -0.395861        2.000000        0.19247726        0.00506298        0.03707353        0.00480397
      50         -0.394162        2.000000        0.19682362        0.00486350        0.03713387        0.00425140
      51         -0.388164        2.000000        0.31472164        0.00350413        0.02290159        0.00341368
      52         -0.383511        2.000000        0.31579665        0.00376102        0.02316886        0.00317165
      53         -0.379461        2.000000        0.31758971        0.00236053        0.01940199        0.00327425
      54         -0.377756        2.000000        0.30776729        0.00408814        0.02234101        0.00488023
      55         -0.377149        2.000000        0.32118996        0.00229384        0.01528642        0.00200437
      56         -0.375300        2.000000        0.31180497        0.00586853        0.01841806        0.00181963
      57         -0.369522        2.000000        0.31328610        0.00183731        0.01628204        0.00367005
      58         -0.366459        2.000000        0.30044389        0.00195089        0.04012651        0.00227356
      59         -0.364045        2.000000        0.29603992        0.00275218        0.04280914        0.00283506
      60         -0.363596        2.000000        0.29947976        0.00370290        0.04589711        0.00144325
      61         -0.362374        2.000000        0.29813547        0.00223041        0.04198767        0.00360953
      62         -0.360553        2.000000        0.29329211        0.00297684        0.04776464        0.00327915
      63         -0.358621        2.000000        0.29445376        0.00217982        0.04620215        0.00224771
      64         -0.354530        2.000000        0.32083893        0.00107559        0.05079373        0.00133584
      65         -0.279113        2.000000        0.22533041        0.01173099        0.00207588        0.02774909
      66         -0.276507        2.000000        0.22909567        0.00870140        0.00126983        0.02503117
      67         -0.275725        2.000000        0.22082761        0.03217952        0.00204391        0.00514104
      68         -0.270744        2.000000        0.20491167        0.02586001        0.00495201        0.01891247
      69         -0.270305        2.000000        0.20861368        0.01857629        0.00479687        0.02458413
      70         -0.267322        2.000000        0.21496858        0.01386686        0.00362180        0.02490888
      71         -0.265975        2.000000        0.21234373        0.01241859        0.00406508        0.02194291
      72         -0.264791        2.000000        0.20952194        0.02346917        0.00328478        0.01240140
      73         -0.262658        2.000000        0.21183225        0.01834109        0.00549351        0.01914513
      74         -0.262096        2.000000        0.21708768        0.01865255        0.00475153        0.01630470
      75         -0.259775        2.000000        0.20978014        0.01662951        0.00315660        0.02138205
      76         -0.259352        2.000000        0.21854902        0.01207539        0.00417575        0.02234548
      77         -0.256851        2.000000        0.24201416        0.01084699        0.00435281        0.01536257
      78         -0.255797        2.000000        0.22359741        0.02104906        0.00509067        0.01151224
      79         -0.254461        2.000000        0.22951025        0.01309818        0.00404514        0.01528765
      80         -0.253366        2.000000        0.27423488        0.01635876        0.00787026        0.01133690
      81         -0.253035        2.000000        0.26338785        0.01437787        0.00540304        0.01284228
      82         -0.252655        2.000000        0.24959432        0.01426114        0.00944792        0.01165789
      83         -0.251188        2.000000        0.26209779        0.01542589        0.00428237        0.00909469
      84         -0.250771        2.000000        0.25375576        0.01679608        0.00723332        0.01234062
      85         -0.250029        2.000000        0.24374476        0.01384923        0.00623815        0.01367154
      86         -0.249531        2.000000        0.26917308        0.01069001        0.00635695        0.01558570
      87         -0.248625        2.000000        0.27247427        0.00976863        0.00954239        0.01443845
      88         -0.247553        2.000000        0.21516030        0.01832348        0.00493153        0.01492947
      89         -0.246792        2.000000        0.25927378        0.01015688        0.00826876        0.01231023
      90         -0.246682        2.000000        0.25641431        0.01256795        0.00911396        0.01292440
      91         -0.245577        2.000000        0.27916074        0.01016458        0.01068515        0.01407542
      92         -0.244488        2.000000        0.24343312        0.01122770        0.01156664        0.01889255
      93         -0.244309        2.000000        0.24968689        0.01523332        0.00688998        0.01319538
      94         -0.243461        2.000000        0.17574118        0.02490221        0.01041669        0.01166111
      95         -0.242595        2.000000        0.25850981        0.01276438        0.00843456        0.01598905
      96         -0.242023        2.000000        0.23108728        0.01671687        0.00788512        0.01632824
      97         -0.240492        2.000000        0.23103260        0.01478518        0.00980134        0.01210697
      98         -0.240405        2.000000        0.22574022        0.01467119        0.00909058        0.01349553
      99         -0.239514        2.000000        0.26357018        0.01260253        0.00906808        0.01275836
     100         -0.238624        2.000000        0.22902962        0.01145857        0.00973723        0.02308377
     101         -0.237685        2.000000        0.17803372        0.01614652        0.00514696        0.01706140
     102         -0.236594        2.000000        0.24385297        0.01302417        0.01021454        0.01335648
     103         -0.235996        2.000000        0.24780915        0.01114454        0.01060927        0.01259438
     104         -0.234629        2.000000        0.18585525        0.01167154        0.00759423        0.01694086
     105         -0.234292        2.000000        0.21824886        0.01390070        0.00786929        0.01392045
     106         -0.233623        2.000000        0.20403115        0.01577761        0.00607644        0.01355733
     107         -0.233143        2.000000        0.27280431        0.01057171        0.00606095        0.01231383
     108         -0.231971        2.000000        0.23188533        0.01518220        0.00641806        0.01348588
     109         -0.231503        2.000000        0.25294779        0.00888965        0.00685009        0.01453163
     110         -0.230543        2.000000        0.22776946        0.01402411        0.00701326        0.01722215
     111         -0.229634        2.000000        0.22474989        0.01075780        0.00754309        0.01564920
     112         -0.228950        2.000000        0.23299450        0.01473632        0.00688406        0.01349257
     113         -0.228440        2.000000        0.24682763        0.01384427        0.00550694        0.01139043
     114         -0.227008        2.000000        0.20538469        0.01712414        0.00652123        0.01308068
     115         -0.226120        2.000000        0.23796338        0.01621717        0.00721932        0.01138833
     116         -0.225684        2.000000        0.20566470        0.01670604        0.00483526        0.01518539
     117         -0.224658        2.000000        0.19482872        0.01576079        0.00903893        0.01527402
     118         -0.224250        2.000000        0.13978225        0.01729307        0.00689191        0.01985384
     119         -0.222815        2.000000        0.19070618        0.01801712        0.00881141        0.01729854
     120         -0.221724        2.000000        0.16156302        0.01806631        0.00612043        0.01353013
     121         -0.221276        2.000000        0.16797987        0.01631816        0.00584633        0.01645628
     122         -0.219867        2.000000        0.17088825        0.01812643        0.00568657        0.01291182
     123         -0.219450        2.000000        0.21239870        0.01341862        0.00500299        0.01390070
     124         -0.218444        2.000000        0.18571851        0.01643513        0.00650602        0.01552408
     125         -0.217619        2.000000        0.25920721        0.01150018        0.00567099        0.01485933
     126         -0.215932        2.000000        0.20999730        0.01550811        0.00606764        0.01128294
     127         -0.212770        2.000000        0.20782794        0.01023983        0.00749402        0.02040106
     128         -0.211696        2.000000        0.28175193        0.01268106        0.00837238        0.01117143
     129         -0.209850        2.000000        0.20460779        0.01322316        0.00680914        0.01749401
     130         -0.208448        2.000000        0.27377200        0.01099021        0.00785132        0.01420178
     131         -0.205879        2.000000        0.19652473        0.01787100        0.00833771        0.01240146
     132         -0.204799        2.000000        0.24661925        0.01614199        0.00958328        0.01023170
     133         -0.203198        2.000000        0.21964386        0.01960281        0.01035037        0.01021358
     134         -0.200336        2.000000        0.17890022        0.02055412        0.00828503        0.01808791
     135         -0.199208        2.000000        0.19932649        0.01077446        0.01281385        0.02084169
     136         -0.197033        2.000000        0.19687633        0.01716522        0.01056231        0.01633692
     137         -0.196083        2.000000        0.23008220        0.01285262        0.01416249        0.01798139
     138         -0.195194        2.000000        0.16097721        0.02689270        0.00956362        0.01476316
     139         -0.189300        2.000000        0.01072246        0.02449987        0.00133837        0.01879097
     140         -0.187280        2.000000        0.01974465        0.00930730        0.00173970        0.03332286
     141         -0.185028        2.000000        0.00864105        0.03302386        0.00121303        0.01085516
     142         -0.171038        2.000000        0.00172439        0.00442367        0.00077287        0.03565667
     143         -0.167532        2.000000        0.00304692        0.02642555        0.00113864        0.01583218
     144         -0.164967        2.000000        0.00383981        0.01858779        0.00148080        0.02677720
     145         -0.164281        2.000000        0.00626135        0.00730115        0.00175439        0.04236227
     146         -0.164098        2.000000        0.00209751        0.03380983        0.00073193        0.01031210
     147         -0.163722        2.000000        0.00418363        0.03015877        0.00124531        0.01159631
     148         -0.160216        2.000000        0.00843211        0.03753155        0.00350576        0.01368451
     149         -0.158992        2.000000        0.00180582        0.01401025        0.00083136        0.03024572
     150         -0.157210        2.000000        0.01246856        0.03766861        0.00446240        0.01359426
     151         -0.141706        2.000000        0.00230383        0.01088676        0.00155597        0.03996007
     152         -0.137923        2.000000        0.00467530        0.03017642        0.00240306        0.01905007
     153         -0.136620        2.000000        0.00507122        0.01893558        0.00238923        0.02944657
     154         -0.134661        2.000000        0.00111956        0.00221672        0.00049337        0.03813807
     155         -0.133680        2.000000        0.00473529        0.03105991        0.00200153        0.01842296
     156         -0.131205        2.000000        0.00167655        0.03886899        0.00099763        0.00198682
     157         -0.130613        2.000000        0.00303199        0.01981856        0.00217564        0.02964840
     158         -0.128503        2.000000        0.00484376        0.03751662        0.00202393        0.01390861
     159         -0.098938        2.000000        0.00287928        0.00157033        0.00129637        0.04697423
     160         -0.096432        2.000000        0.00478979        0.04510157        0.00100460        0.00157512
     161         -0.022759        0.000000        0.02200608        0.00247924        0.02544142        0.00241872
     162         -0.017637        0.000000        0.01894562        0.00270061        0.00540411        0.00226168
     163         -0.013922        0.000000        0.00532079        0.01083572        0.01963899        0.01228856
     164         -0.012610        0.000000        0.00544681        0.01470858        0.01787291        0.00930566
     165         -0.009390        0.000000        0.00488435        0.00996165        0.01776810        0.01551251
     166         -0.002128        0.000000        0.01148971        0.02274350        0.01741405        0.01266357
     167         -0.001443        0.000000        0.01224230        0.01924731        0.01529761        0.01820932
     168          0.001219        0.000000        0.01329150        0.02223743        0.01612566        0.01556593
     169          0.002418        0.000000        0.01475419        0.01450349        0.01757750        0.02445397
     170          0.002681        0.000000        0.01451394        0.01721651        0.01520548        0.02404254
     171          0.005442        0.000000        0.01366532        0.01598470        0.01691616        0.02210456
     172          0.006224        0.000000        0.01375687        0.01579086        0.02376388        0.02345977
     173          0.008060        0.000000        0.01340240        0.02297272        0.01705550        0.01539516
     174          0.009747        0.000000        0.01327464        0.02533457        0.01800235        0.01277407
     175          0.016445        0.000000        0.01110284        0.01989276        0.02179023        0.02494579
     176          0.021909        0.000000        0.01032134        0.02750042        0.01979908        0.02962886
     177          0.022731        0.000000        0.01013769        0.04017683        0.02188101        0.00881481
     178          0.025956        0.000000        0.00927957        0.01953960        0.02017963        0.02811796
     179          0.027889        0.000000        0.01221561        0.02327299        0.02340458        0.03420050
     180          0.031885        0.000000        0.01781686        0.03383528        0.03084199        0.01664080
     181          0.048607        0.000000        0.05405733        0.10663854        0.06533832        0.07347638
     182          0.049251        0.000000        0.05424501        0.05623421        0.04854620        0.10420615
     183          0.053757        0.000000        0.04057599        0.10733841        0.04244851        0.03083560
     184          0.056720        0.000000        0.01962020        0.03484367        0.01665071        0.04814401
     185          0.057593        0.000000        0.05826582        0.06179302        0.06569951        0.12616644
     186          0.063230        0.000000        0.07846006        0.07382147        0.06998377        0.09273656
     187          0.065852        0.000000        0.08348971        0.12783035        0.06782887        0.03242542
     188          0.067831        0.000000        0.08028371        0.07604939        0.06407528        0.09547973
     189          0.071915        0.000000        0.06053342        0.07745728        0.05429576        0.08565392
     190          0.074104        0.000000        0.06364419        0.07299955        0.06226380        0.10538800
     191          0.075180        0.000000        0.07686555        0.07431741        0.05029759        0.08237147
     192          0.076644        0.000000        0.05610500        0.07694994        0.06329244        0.08904685
     193          0.081448        0.000000        0.07082442        0.10317041        0.06620826        0.07016353
     194          0.081664        0.000000        0.07323765        0.09523500        0.04653992        0.07661401
     195          0.082349        0.000000        0.05002331        0.09375828        0.06949652        0.07257665
     196          0.084404        0.000000        0.05909390        0.05870076        0.06826289        0.10294508
     197          0.085589        0.000000        0.05182052        0.12616574        0.07983851        0.05683649
     198          0.087937        0.000000        0.03595000        0.07575697        0.05133317        0.06263407
     199          0.090417        0.000000        0.06052446        0.06786826        0.04371508        0.05192601
     200          0.091849        0.000000        0.06814366        0.06875479        0.05251604        0.06034865
     201          0.092545        0.000000        0.07141036        0.08958873        0.06875849        0.06357028
     202          0.095866        0.000000        0.05355800        0.06634301        0.03147934        0.05600671
     203          0.097039        0.000000        0.07974890        0.05686684        0.04206126        0.06057200
     204          0.098614        0.000000        0.07503278        0.06225759        0.04663089        0.04823048
     205          0.099852        0.000000        0.09406727        0.05955694        0.05507861        0.06531234
     206          0.100614        0.000000        0.09209156        0.06747541        0.05232643        0.08559977
     207          0.101804        0.000000        0.05559890        0.06603131        0.04981697        0.08235375
     208          0.103302        0.000000        0.06373292        0.06048439        0.05234231        0.06804544
     209          0.103868        0.000000        0.09702125        0.05685100        0.04991273        0.06991928
     210          0.104197        0.000000        0.06124981        0.05948932        0.05102312        0.08211587
