# Projected DOS for atomic kind Si at iteration step i = 0, E(Fermi) =    -0.093869 a.u.
#     MO Eigenvalue [a.u.]      Occupation                 s                py                pz                px               d-2               d-1                d0               d+1               d+2
       1         -0.557902        2.000000        0.01647592        0.00032203        0.00159438        0.00015628        0.00002486        0.00004426        0.00017786        0.00002798        0.00002417
       2         -0.544786        2.000000        0.64976171        0.00376728        0.02555677        0.00199681        0.00074162        0.00047953        0.03088773        0.00025743        0.00115794
       3         -0.537093        2.000000        0.00987938        0.00223471        0.00118558        0.00362815        0.00030388        0.00013424        0.00012983        0.00020993        0.00015238
       4         -0.534652        2.000000        0.00697971        0.00341587        0.00105296        0.00086807        0.00006308        0.00019117        0.00012275        0.00006597        0.00032226
       5         -0.530474        2.000000        0.00835056        0.00133878        0.00084042        0.00342715        0.00025399        0.00007269        0.00014079        0.00015012        0.00013186
       6         -0.528966        2.000000        0.05977705        0.01789360        0.00144033        0.01106103        0.00124856        0.00091516        0.00042276        0.00044148        0.00221052
       7         -0.526997        2.000000        0.10565262        0.03614575        0.00266719        0.01282039        0.00154091        0.00134721        0.00142760        0.00064826        0.00394163
       8         -0.525824        2.000000        0.35903351        0.10791492        0.01010271        0.04908218        0.00620877        0.00602990        0.00606075        0.00224251        0.01512564
       9         -0.521735        2.000000        0.11439295        0.01800243        0.00215217        0.03649229        0.00411086        0.00068517        0.00131130        0.00171001        0.00196010
      10         -0.520115        2.000000        0.43559823        0.07163619        0.00973437        0.12529555        0.01564002        0.00293203        0.00732217        0.00649629        0.00934130
      11         -0.519254        2.000000        0.48153822        0.08260947        0.01104897        0.13341582        0.01676098        0.00437790        0.00734942        0.00588471        0.01039578
      12         -0.518298        2.000000        0.44998691        0.07192726        0.00862066        0.13259273        0.01640164        0.00368162        0.00802457        0.00602453        0.00885902
      13         -0.514106        2.000000        0.49335337        0.09589397        0.00899010        0.13227639        0.01585353        0.00411416        0.00669198        0.00612308        0.01362611
      14         -0.511573        2.000000        0.49800360        0.18001289        0.00828270        0.05419420        0.00712341        0.00881641        0.00705393        0.00268844        0.02178905
      15         -0.490978        2.000000        0.00232659        0.00176917        0.00060754        0.00088877        0.00020482        0.00027488        0.00016214        0.00017220        0.00017229
      16         -0.487780        2.000000        0.00489027        0.00112461        0.00054259        0.00371983        0.00036412        0.00022276        0.00017869        0.00034764        0.00046166
      17         -0.484250        2.000000        0.00780215        0.00234650        0.00040330        0.00504555        0.00068160        0.00021512        0.00019179        0.00036608        0.00062694
      18         -0.483208        2.000000        0.00925285        0.00382657        0.00036816        0.00472010        0.00074212        0.00035998        0.00013163        0.00039532        0.00075375
      19         -0.481417        2.000000        0.06528878        0.02761825        0.00065685        0.02656439        0.00559930        0.00171064        0.00039438        0.00175323        0.00552808
      20         -0.480831        2.000000        0.02451519        0.01049673        0.00051628        0.01006147        0.00193188        0.00102013        0.00022557        0.00070280        0.00230318
      21         -0.479149        2.000000        0.29016502        0.09548046        0.00170933        0.13817874        0.02659622        0.00606335        0.00062103        0.01034312        0.02400567
      22         -0.478282        2.000000        0.01832076        0.00956105        0.00061035        0.00622182        0.00149304        0.00076258        0.00018275        0.00043417        0.00153430
      23         -0.476844        2.000000        0.16054147        0.06000233        0.00090659        0.07474886        0.01350290        0.00497595        0.00035701        0.00474481        0.01291668
      24         -0.475690        2.000000        0.24006197        0.10054962        0.00146634        0.09432998        0.02098319        0.00783748        0.00025863        0.00671761        0.02057802
      25         -0.472955        2.000000        0.38720431        0.17270830        0.00155593        0.13026786        0.03507301        0.01347003        0.00071453        0.01000836        0.03781659
      26         -0.472488        2.000000        0.39529025        0.14762359        0.00145774        0.16192052        0.03765140        0.01045371        0.00067862        0.01187888        0.03758080
      27         -0.470764        2.000000        0.39852928        0.09560370        0.00136197        0.18917712        0.06646574        0.00701033        0.00119934        0.01537117        0.03246820
      28         -0.469375        2.000000        0.40803811        0.17577004        0.00129168        0.10194782        0.03753247        0.01439769        0.00129491        0.00846732        0.06223424
      29         -0.468630        2.000000        0.24350149        0.08250611        0.00091343        0.10795201        0.02002726        0.00582815        0.00069004        0.00698003        0.02556029
      30         -0.467820        2.000000        0.34624615        0.14010456        0.00083541        0.13590390        0.03141405        0.00970385        0.00131640        0.00893798        0.03132541
      31         -0.467660        2.000000        0.21210964        0.10730573        0.00057073        0.05317136        0.01387841        0.00728464        0.00069097        0.00412676        0.02946604
      32         -0.463850        2.000000        0.40518436        0.12423995        0.00202613        0.15266494        0.05543883        0.00967891        0.00149569        0.01224316        0.04398212
      33         -0.422990        2.000000        0.00845026        0.00382664        0.00313418        0.00931616        0.00031516        0.00037220        0.00071383        0.00069683        0.00015913
      34         -0.420094        2.000000        0.01313395        0.00592061        0.00408217        0.01408066        0.00033811        0.00061822        0.00126316        0.00115737        0.00020982
      35         -0.417788        2.000000        0.03208187        0.04345086        0.01078725        0.00224515        0.00032138        0.00369683        0.00252310        0.00060716        0.00105640
      36         -0.414307        2.000000        0.04888099        0.01937905        0.01382617        0.04205823        0.00238589        0.00274100        0.00324432        0.00505412        0.00128780
      37         -0.411364        2.000000        0.22605364        0.15756615        0.03698548        0.14347293        0.00562790        0.01700455        0.01209286        0.01288434        0.00808535
      38         -0.410258        2.000000        0.01706569        0.00614811        0.00606851        0.01054078        0.00139835        0.00165268        0.00136783        0.00168386        0.00121464
      39         -0.409887        2.000000        0.21940611        0.18055593        0.03394865        0.11096223        0.00533169        0.01833555        0.01067141        0.01206543        0.00714401
      40         -0.409156        2.000000        0.24225841        0.08497743        0.03742671        0.24223092        0.00927081        0.01008500        0.01118845        0.02440466        0.00315181
      41         -0.407731        2.000000        0.10707454        0.08325823        0.02203789        0.03917771        0.00619695        0.00920605        0.00746305        0.00608457        0.00672727
      42         -0.406309        2.000000        0.02421940        0.02751776        0.00472807        0.00313128        0.00075991        0.00326954        0.00130735        0.00084949        0.00133285
      43         -0.403681        2.000000        0.20213797        0.09378631        0.04251253        0.10436374        0.01698899        0.01253143        0.01354192        0.01467091        0.01610904
      44         -0.402559        2.000000        0.03952804        0.01557956        0.01287637        0.02130186        0.00505484        0.00199422        0.00283937        0.00377325        0.00216083
      45         -0.401311        2.000000        0.05814209        0.03161964        0.01664883        0.02312404        0.00404037        0.00452916        0.00418403        0.00386393        0.00658298
      46         -0.400294        2.000000        0.28015430        0.14859477        0.06480829        0.11083455        0.01692635        0.02216055        0.01757781        0.01632513        0.03534457
      47         -0.399780        2.000000        0.28945179        0.10042872        0.06995809        0.15670769        0.03793595        0.01561828        0.01753375        0.02419509        0.01496832
      48         -0.398394        2.000000        0.28832866        0.15962438        0.05925376        0.11869221        0.02243457        0.01852211        0.02333687        0.01477660        0.03277158
      49         -0.397128        2.000000        0.26220320        0.12858373        0.06149750        0.11729240        0.01940501        0.02022996        0.01466670        0.01545815        0.02784912
      50         -0.396323        2.000000        0.29194928        0.11439059        0.07077974        0.15578969        0.03492351        0.01485593        0.02096592        0.02144127        0.01904778
      51         -0.385975        2.000000        0.04213597        0.00973582        0.08915620        0.01327023        0.00280012        0.00300385        0.00782364        0.00473045        0.00248079
      52         -0.380330        2.000000        0.06442021        0.01874350        0.15877875        0.00350603        0.00064652        0.00984750        0.00900620        0.00113826        0.00497332
      53         -0.378937        2.000000        0.04006451        0.00408152        0.13118835        0.00443649        0.00138942        0.00356768        0.00704063        0.00321629        0.00143467
      54         -0.376591        2.000000        0.06526632        0.01169376        0.11379115        0.01582118        0.00498004        0.00359151        0.00977324        0.00793150        0.00292773
      55         -0.374667        2.000000        0.06470119        0.01009367        0.12804006        0.01202544        0.00333213        0.00614955        0.00881578        0.00645627        0.00302731
      56         -0.372251        2.000000        0.10586251        0.01463242        0.20248221        0.02491574        0.00652501        0.00664551        0.01312929        0.01221889        0.00318555
      57         -0.371697        2.000000        0.05887927        0.01919252        0.13335358        0.00372134        0.00085652        0.00704545        0.00825580        0.00192478        0.00438630
      58         -0.366014        2.000000        0.13798171        0.03293148        0.19601002        0.03068906        0.00771472        0.01146366        0.01602156        0.00938448        0.00742377
      59         -0.363994        2.000000        0.11090179        0.02127900        0.18008109        0.02427186        0.00652077        0.00735499        0.01214229        0.00956559        0.00496706
      60         -0.363762        2.000000        0.15347955        0.03179029        0.21948630        0.03070157        0.00818431        0.01087469        0.01757719        0.01197396        0.00893891
      61         -0.361535        2.000000        0.11824796        0.02121305        0.16977399        0.02942019        0.00729509        0.00600125        0.01316189        0.01023609        0.00456793
      62         -0.360451        2.000000        0.11332259        0.01652242        0.15903529        0.03633924        0.00832482        0.00448975        0.01329989        0.01217696        0.00368696
      63         -0.358359        2.000000        0.14772532        0.05049517        0.21328054        0.01572701        0.00376504        0.01707777        0.01735560        0.00568640        0.01306819
      64         -0.354099        2.000000        0.09074382        0.00601738        0.26281906        0.01036335        0.00208232        0.00196457        0.00927645        0.00388576        0.00123606
      65         -0.280999        2.000000        0.00592211        0.09599004        0.38368557        0.19543242        0.00389609        0.00430059        0.02142575        0.00623720        0.00384617
      66         -0.278908        2.000000        0.00350002        0.08826826        0.38757457        0.18027784        0.00114524        0.00289891        0.01879689        0.00408896        0.00124277
      67         -0.274945        2.000000        0.00716448        0.18686655        0.38400963        0.07847573        0.00536633        0.00355237        0.01915833        0.00355020        0.00277362
      68         -0.272679        2.000000        0.01293359        0.07869568        0.31294427        0.12374891        0.00972829        0.00626576        0.01403483        0.00516165        0.01291351
      69         -0.269822        2.000000        0.01018744        0.08171763        0.24923593        0.08585983        0.00900389        0.00382618        0.01055336        0.00333726        0.00635942
      70         -0.268877        2.000000        0.01418675        0.09142660        0.30187421        0.10637916        0.01186456        0.00539411        0.01317025        0.00352609        0.00868395
      71         -0.267051        2.000000        0.01203478        0.08463053        0.26897539        0.14097150        0.00672437        0.00872738        0.02128026        0.00188968        0.01371509
      72         -0.265116        2.000000        0.00688650        0.04869796        0.15977827        0.04871339        0.00349269        0.00331709        0.00823118        0.00151783        0.00711255
      73         -0.263641        2.000000        0.01106723        0.07440118        0.18960343        0.10694863        0.00687508        0.00636338        0.00793153        0.00264804        0.01145914
      74         -0.262931        2.000000        0.01201831        0.06640765        0.26653773        0.10548120        0.00903904        0.00550211        0.01789197        0.00277304        0.00996702
      75         -0.261859        2.000000        0.01310297        0.07554799        0.24021553        0.12278996        0.01227079        0.00594419        0.01598940        0.00343713        0.00805003
      76         -0.260837        2.000000        0.01719843        0.06470527        0.31440964        0.16354800        0.01448620        0.00505911        0.01392281        0.00335707        0.01364937
      77         -0.258396        2.000000        0.00860556        0.14436961        0.25477516        0.13928575        0.01265032        0.00837320        0.03767383        0.00593699        0.00593794
      78         -0.256159        2.000000        0.01310539        0.09894768        0.25704158        0.08782120        0.00804684        0.00687164        0.04902929        0.00428962        0.00954192
      79         -0.255118        2.000000        0.01923836        0.10204177        0.19953611        0.13073467        0.01495296        0.00405049        0.02956320        0.00421469        0.00857684
      80         -0.254463        2.000000        0.00828123        0.15382911        0.16673207        0.11595090        0.00536123        0.00877895        0.04003032        0.00398007        0.00901395
      81         -0.253629        2.000000        0.01612165        0.14844279        0.15578616        0.09731067        0.00924433        0.00437236        0.02986757        0.00526906        0.00972998
      82         -0.251748        2.000000        0.00958737        0.14215421        0.24431038        0.09103496        0.00721681        0.00952626        0.04838410        0.00768433        0.00670905
      83         -0.251401        2.000000        0.01245581        0.17581297        0.19034179        0.15598643        0.01282525        0.00529843        0.03522236        0.00927644        0.00785512
      84         -0.250569        2.000000        0.01131749        0.08253048        0.13791688        0.10551635        0.00928445        0.00281823        0.02819480        0.00511935        0.00619206
      85         -0.250231        2.000000        0.02059213        0.05592722        0.13308781        0.11109918        0.01456937        0.00190239        0.02283597        0.00203349        0.00719255
      86         -0.249321        2.000000        0.02388079        0.10316954        0.23213448        0.14026594        0.01650161        0.00814319        0.04966038        0.00427643        0.01257958
      87         -0.248884        2.000000        0.00471775        0.14702456        0.22110435        0.08406526        0.00637993        0.00605293        0.04224268        0.01116185        0.00538624
      88         -0.247974        2.000000        0.01045680        0.04406904        0.08470387        0.04393336        0.00609539        0.00218875        0.01621798        0.00263633        0.00534345
      89         -0.246832        2.000000        0.01082256        0.19625012        0.15784386        0.15510062        0.01261801        0.00377205        0.03415007        0.01111898        0.00925726
      90         -0.246522        2.000000        0.00852219        0.05182076        0.18161074        0.05524769        0.00616723        0.00437526        0.02445929        0.00272288        0.00704644
      91         -0.245907        2.000000        0.02306128        0.13911462        0.17102455        0.12648423        0.01456715        0.00410108        0.03435852        0.00661280        0.01447841
      92         -0.244908        2.000000        0.01800285        0.13910491        0.18972936        0.09878484        0.00969231        0.00665274        0.04094098        0.00573447        0.01726186
      93         -0.244614        2.000000        0.01001059        0.05417950        0.10205287        0.05361109        0.00460821        0.00288732        0.02339862        0.00289430        0.00769823
      94         -0.243393        2.000000        0.02012012        0.14922727        0.24423585        0.08955234        0.01159531        0.00599561        0.04199210        0.00882760        0.01921704
      95         -0.242934        2.000000        0.02139004        0.14516798        0.22279414        0.08740102        0.00951737        0.00855922        0.04640942        0.00494881        0.01799258
      96         -0.242203        2.000000        0.01329286        0.08788858        0.14950631        0.10548969        0.01444525        0.00417652        0.02642556        0.00604122        0.00808955
      97         -0.241540        2.000000        0.01284741        0.08120251        0.19655595        0.10016365        0.00832336        0.00553343        0.04839111        0.00298831        0.01472287
      98         -0.240749        2.000000        0.01653751        0.12383654        0.15124201        0.09511892        0.01037139        0.00414818        0.04135536        0.00305782        0.01768947
      99         -0.240137        2.000000        0.02016670        0.07671267        0.14137312        0.12747121        0.01814764        0.00324918        0.02786794        0.00282664        0.00830492
     100         -0.238476        2.000000        0.01133188        0.04745329        0.12335558        0.08217104        0.00947441        0.00292001        0.02748026        0.00243862        0.00693475
     101         -0.238226        2.000000        0.01367872        0.07428500        0.18488724        0.07870583        0.00853259        0.00525273        0.05125871        0.00504508        0.01096870
     102         -0.237512        2.000000        0.00917516        0.08362255        0.13774102        0.04263880        0.00527600        0.00326124        0.03879114        0.00390238        0.00859849
     103         -0.236040        2.000000        0.01128836        0.07781618        0.08980705        0.07350885        0.00702239        0.00238080        0.01937273        0.00213138        0.01056276
     104         -0.235495        2.000000        0.00772832        0.04478214        0.17588230        0.04797642        0.00714080        0.00438615        0.05325283        0.00456513        0.00273517
     105         -0.234495        2.000000        0.02339692        0.12468537        0.19401095        0.12319076        0.01546688        0.00434253        0.04404402        0.00518191        0.02088342
     106         -0.233568        2.000000        0.00785276        0.05444426        0.15375393        0.05539756        0.00742870        0.00602342        0.03344157        0.00313327        0.00739672
     107         -0.232835        2.000000        0.00917345        0.15844643        0.13187275        0.16321099        0.01394108        0.01045925        0.02116328        0.00748656        0.01444935
     108         -0.231579        2.000000        0.01134046        0.09600699        0.13208458        0.11328853        0.00782978        0.00666806        0.02995535        0.00446233        0.01538353
     109         -0.230971        2.000000        0.01042037        0.05652219        0.15689133        0.06300829        0.01078358        0.00619524        0.03236461        0.00401116        0.00740885
     110         -0.230574        2.000000        0.01450379        0.10212378        0.19434932        0.05984478        0.00960910        0.00499214        0.04357354        0.00441606        0.01380077
     111         -0.229195        2.000000        0.00679457        0.04624818        0.13414855        0.09406676        0.00738066        0.00497987        0.03252531        0.00512415        0.00943654
     112         -0.228270        2.000000        0.00860637        0.04741912        0.08194839        0.03784647        0.00478388        0.00249499        0.01883538        0.00323558        0.00735766
     113         -0.226944        2.000000        0.00723074        0.08644182        0.10005183        0.06127519        0.00987487        0.00450941        0.02313285        0.00465959        0.00633054
     114         -0.226146        2.000000        0.00560262        0.06254062        0.13733460        0.10520787        0.00777563        0.00811302        0.03162037        0.00536573        0.00832321
     115         -0.225967        2.000000        0.01123601        0.07093190        0.11655679        0.13686167        0.01181850        0.00644772        0.01722418        0.00481716        0.01301754
     116         -0.224237        2.000000        0.00787674        0.10069957        0.10253543        0.07924476        0.01261280        0.00372852        0.02210498        0.00609971        0.00885102
     117         -0.223831        2.000000        0.00329361        0.05010556        0.08562982        0.06865251        0.00472610        0.00472636        0.02432625        0.00411492        0.00719192
     118         -0.223216        2.000000        0.00547266        0.07319105        0.10928900        0.05748634        0.00983719        0.00517330        0.01806585        0.00570532        0.00595219
     119         -0.222160        2.000000        0.00926050        0.09517250        0.12694377        0.07267632        0.01243958        0.00482846        0.02379773        0.00627073        0.00923284
     120         -0.221434        2.000000        0.00451817        0.09588602        0.09291347        0.05939069        0.01190076        0.00486260        0.01343425        0.00628333        0.00579419
     121         -0.221163        2.000000        0.00859231        0.08214337        0.11445105        0.05301968        0.01171169        0.00361188        0.02368264        0.00618893        0.00728943
     122         -0.219799        2.000000        0.00417295        0.06482895        0.07810030        0.03550724        0.00764177        0.00259027        0.01838298        0.00425695        0.00429982
     123         -0.219407        2.000000        0.00742245        0.09056320        0.14930428        0.06669725        0.01231174        0.00667316        0.03427193        0.00722082        0.00692019
     124         -0.218050        2.000000        0.00231168        0.02362299        0.05261005        0.02645977        0.00456340        0.00207127        0.01138000        0.00196356        0.00181331
     125         -0.215861        2.000000        0.00515720        0.03465147        0.10125226        0.02861377        0.00421657        0.00284267        0.02603212        0.00250516        0.00595907
     126         -0.214140        2.000000        0.00191223        0.02222351        0.07413014        0.01812919        0.00231095        0.00281600        0.01784927        0.00156407        0.00378514
     127         -0.212966        2.000000        0.00378031        0.04897545        0.08923538        0.02233066        0.00638506        0.00308408        0.02464127        0.00337487        0.00209298
     128         -0.212246        2.000000        0.00269628        0.01823828        0.04812361        0.02015754        0.00290283        0.00201168        0.00979705        0.00135804        0.00320285
     129         -0.208755        2.000000        0.00175261        0.01599315        0.06114327        0.01645962        0.00238021        0.00196074        0.01431987        0.00183100        0.00258336
     130         -0.207647        2.000000        0.00455878        0.02281497        0.09166593        0.03326913        0.00693140        0.00245161        0.02237686        0.00389062        0.00257284
     131         -0.205684        2.000000        0.00298462        0.02662111        0.06937524        0.01742648        0.00320550        0.00250339        0.01941033        0.00289301        0.00250698
     132         -0.204446        2.000000        0.00118856        0.01997895        0.04480720        0.01474551        0.00086587        0.00226897        0.01168396        0.00068057        0.00244772
     133         -0.201276        2.000000        0.00083329        0.01198711        0.03828872        0.01006368        0.00110491        0.00142357        0.01138040        0.00130929        0.00096234
     134         -0.200832        2.000000        0.00105652        0.01775681        0.03736638        0.02606189        0.00248215        0.00139251        0.00780548        0.00176134        0.00122286
     135         -0.198988        2.000000        0.00237026        0.01830935        0.05606252        0.01334559        0.00169419        0.00135919        0.01900862        0.00186969        0.00122761
     136         -0.197866        2.000000        0.00117739        0.00930830        0.03309579        0.01594656        0.00130078        0.00105212        0.00807939        0.00102081        0.00135416
     137         -0.195330        2.000000        0.00033608        0.01724269        0.01262385        0.04644779        0.00136642        0.00078710        0.00227241        0.00209650        0.00081385
     138         -0.194685        2.000000        0.00050318        0.02452624        0.01719515        0.01135828        0.00089055        0.00116938        0.00336456        0.00085067        0.00091752
     139         -0.192943        2.000000        0.00151940        0.56362444        0.02950382        0.23642212        0.00506672        0.01841691        0.00377412        0.00965848        0.01127824
     140         -0.191342        2.000000        0.00192641        0.06643244        0.02612246        0.73798346        0.01492610        0.00324579        0.00561397        0.02460035        0.00380197
     141         -0.187974        2.000000        0.00216713        0.61918103        0.02372777        0.23428769        0.00595737        0.01927290        0.00484838        0.01204201        0.01063944
     142         -0.176340        2.000000        0.00193731        0.07111115        0.01589157        0.74877756        0.07083089        0.00327339        0.00352859        0.02356457        0.00841138
     143         -0.170494        2.000000        0.00091947        0.52420988        0.01165928        0.30532663        0.03068535        0.01394362        0.00170952        0.00967963        0.05215001
     144         -0.168641        2.000000        0.00119728        0.57171869        0.02441789        0.23373837        0.02236085        0.01683896        0.00423898        0.00929459        0.05934232