# Projected DOS for atomic kind Ge at iteration step i = 0, E(Fermi) =    -0.093762 a.u.
#     MO Eigenvalue [a.u.]      Occupation                 s                py                pz                px               d-2               d-1                d0               d+1               d+2
       1         -0.557943        2.000000        0.75059414        0.00435992        0.01986809        0.00402987        0.00059641        0.00044397        0.00758088        0.00055311        0.00077055
       2         -0.545618        2.000000        0.01433804        0.00013980        0.00315811        0.00024871        0.00003251        0.00001481        0.00069947        0.00004370        0.00002993
       3         -0.536546        2.000000        0.65115889        0.05882449        0.01215966        0.05541008        0.00539339        0.00304022        0.00288961        0.00339090        0.00620473
       4         -0.535303        2.000000        0.65303027        0.05484611        0.01367672        0.05726696        0.00547070        0.00296433        0.00248525        0.00298624        0.00551039
       5         -0.530634        2.000000        0.64720815        0.03567017        0.00883698        0.07888685        0.00792141        0.00198754        0.00314890        0.00450726        0.00391177
       6         -0.528890        2.000000        0.50441604        0.03637856        0.00646667        0.05228083        0.00509572        0.00180355        0.00215629        0.00301303        0.00366662
       7         -0.527138        2.000000        0.48013435        0.07023268        0.00679564        0.01447828        0.00204881        0.00357726        0.00233445        0.00086437        0.00695284
       8         -0.526522        2.000000        0.29805464        0.04383189        0.00526473        0.00752318        0.00100188        0.00242986        0.00167362        0.00068540        0.00512409
       9         -0.522555        2.000000        0.26705152        0.01805883        0.00312660        0.03092604        0.00299047        0.00096422        0.00118843        0.00190448        0.00192002
      10         -0.521301        2.000000        0.28883729        0.01622158        0.00521098        0.03846595        0.00374769        0.00087137        0.00154051        0.00192138        0.00149024
      11         -0.520230        2.000000        0.11408274        0.00621210        0.00313338        0.01403301        0.00154040        0.00039969        0.00076629        0.00097484        0.00076574
      12         -0.518442        2.000000        0.05181302        0.00399358        0.00236609        0.00495127        0.00056641        0.00027404        0.00055176        0.00037814        0.00053312
      13         -0.514881        2.000000        0.01103945        0.00069832        0.00139410        0.00095313        0.00012617        0.00011194        0.00023425        0.00007097        0.00014583
      14         -0.512519        2.000000        0.00442863        0.00066030        0.00085057        0.00016917        0.00003080        0.00005388        0.00014868        0.00002964        0.00010517
      15         -0.490628        2.000000        0.54657988        0.13420407        0.00231860        0.07978731        0.01266309        0.00867354        0.00081482        0.00599787        0.01626189
      16         -0.488317        2.000000        0.54272372        0.06462066        0.00206017        0.14838338        0.01897567        0.00573157        0.00074586        0.00868779        0.01301944
      17         -0.484213        2.000000        0.54322556        0.06389278        0.00148263        0.13575371        0.02202543        0.00429507        0.00048338        0.01049647        0.01280337
      18         -0.483067        2.000000        0.52418745        0.10305032        0.00286144        0.10527952        0.01466906        0.00743757        0.00044350        0.00797749        0.01283652
      19         -0.481697        2.000000        0.29807243        0.07342058        0.00060044        0.04475627        0.00749207        0.00398666        0.00026774        0.00302213        0.00894629
      20         -0.480078        2.000000        0.55321784        0.11524894        0.00115074        0.07406264        0.01251434        0.00972577        0.00051668        0.00442445        0.02778548
      21         -0.479874        2.000000        0.29200088        0.07343734        0.00145485        0.04168937        0.00594215        0.00421849        0.00031725        0.00323393        0.01043517
      22         -0.478312        2.000000        0.54819725        0.10587141        0.00217822        0.08719515        0.01711436        0.00702272        0.00058086        0.00595984        0.02172448
      23         -0.477414        2.000000        0.32517589        0.06897060        0.00123119        0.06162468        0.00898334        0.00380501        0.00026022        0.00358277        0.01057324
      24         -0.476379        2.000000        0.19253769        0.03425262        0.00068394        0.04280503        0.00565647        0.00199398        0.00014901        0.00274949        0.00544449
      25         -0.474376        2.000000        0.02270591        0.00406820        0.00025129        0.00442189        0.00073658        0.00025620        0.00004109        0.00035377        0.00076753
      26         -0.473214        2.000000        0.00876319        0.00207276        0.00035566        0.00133759        0.00022437        0.00016876        0.00004488        0.00009668        0.00032358
      27         -0.472088        2.000000        0.01422359        0.00257607        0.00049124        0.00312170        0.00044698        0.00018009        0.00004564        0.00017735        0.00050057
      28         -0.470439        2.000000        0.00721345        0.00113889        0.00033534        0.00193808        0.00026371        0.00008864        0.00003438        0.00009929        0.00021530
      29         -0.469865        2.000000        0.03795188        0.00510598        0.00043663        0.00890424        0.00191028        0.00026197        0.00007387        0.00061732        0.00074967
      30         -0.468249        2.000000        0.51629343        0.05810640        0.00311831        0.12148220        0.02346310        0.00396572        0.00055705        0.00855683        0.01110003
      31         -0.467808        2.000000        0.00535391        0.00123835        0.00044844        0.00111620        0.00018094        0.00012639        0.00005113        0.00010194        0.00018789
      32         -0.463886        2.000000        0.00243813        0.00060523        0.00046462        0.00076655        0.00008746        0.00004665        0.00004500        0.00004579        0.00006787
      33         -0.422660        2.000000        0.37349949        0.09033401        0.04570522        0.17971772        0.00872619        0.00730653        0.00670230        0.01660010        0.00629547
      34         -0.420122        2.000000        0.36381472        0.08632879        0.03764413        0.19234431        0.00925397        0.00677461        0.00842100        0.01530010        0.00420439
      35         -0.417967        2.000000        0.34054524        0.19233821        0.04123078        0.06408540        0.00416689        0.01532690        0.00680531        0.00479469        0.01024490
      36         -0.413592        2.000000        0.26554754        0.06215155        0.04876437        0.07308268        0.01105549        0.00789913        0.00540536        0.00824663        0.00684496
      37         -0.411496        2.000000        0.10025851        0.02204712        0.01503562        0.03218145        0.00438972        0.00267572        0.00188461        0.00341044        0.00227076
      38         -0.410755        2.000000        0.30154624        0.08644105        0.03987277        0.09110635        0.01254013        0.00761620        0.00726876        0.00929280        0.01025626
      39         -0.410173        2.000000        0.05597248        0.01687627        0.00778548        0.01871221        0.00161393        0.00152295        0.00127552        0.00198357        0.00168191
      40         -0.409588        2.000000        0.17648681        0.04307498        0.03042236        0.05967140        0.00608545        0.00544306        0.00330037        0.00588828        0.00548740
      41         -0.406998        2.000000        0.24383273        0.08765733        0.03944642        0.05553575        0.00574893        0.00975796        0.00615995        0.00684589        0.00954059
      42         -0.406299        2.000000        0.37707371        0.13066989        0.04704562        0.10361315        0.01121337        0.01141154        0.01191885        0.00940703        0.01754937
      43         -0.403739        2.000000        0.13427600        0.04625156        0.01791331        0.03287102        0.00406369        0.00420152        0.00291926        0.00391578        0.00492435
      44         -0.402745        2.000000        0.05031008        0.01705281        0.00531895        0.01455594        0.00164520        0.00124407        0.00134691        0.00130580        0.00199179
      45         -0.402528        2.000000        0.35671157        0.09457394        0.04063238        0.11652784        0.01666117        0.00772313        0.01203512        0.01050626        0.00993207
      46         -0.401500        2.000000        0.33110349        0.09282973        0.04334437        0.09749139        0.01095859        0.00905029        0.00988693        0.00891477        0.01433595
      47         -0.400617        2.000000        0.01394868        0.00403869        0.00154318        0.00467280        0.00065025        0.00040458        0.00026518        0.00037055        0.00042337
      48         -0.399587        2.000000        0.01283153        0.00436202        0.00266755        0.00371175        0.00037469        0.00044151        0.00028588        0.00030050        0.00055738
      49         -0.398029        2.000000        0.07701729        0.02535534        0.01001827        0.02110234        0.00234817        0.00200606        0.00195118        0.00194362        0.00339619
      50         -0.397164        2.000000        0.00750539        0.00202990        0.00216402        0.00276474        0.00027888        0.00020573        0.00027991        0.00020782        0.00021368
      51         -0.385139        2.000000        0.20434420        0.02048861        0.22239250        0.03090090        0.00506903        0.00533947        0.00891442        0.00726959        0.00301638
      52         -0.380456        2.000000        0.15382787        0.03123647        0.17598101        0.00959913        0.00100810        0.00706766        0.00907855        0.00124188        0.00547346
      53         -0.378228        2.000000        0.15218139        0.01916311        0.18758556        0.01964097        0.00357423        0.00338852        0.00937556        0.00445546        0.00271352
      54         -0.377036        2.000000        0.14057127        0.01517043        0.14631528        0.02189757        0.00420160        0.00280002        0.00859632        0.00561016        0.00203177
      55         -0.375251        2.000000        0.15334797        0.01598483        0.14908742        0.02801734        0.00402511        0.00395434        0.01090695        0.00519232        0.00270641
      56         -0.373556        2.000000        0.09489910        0.01001816        0.08534237        0.01853976        0.00344881        0.00152241        0.00669399        0.00334523        0.00168974
      57         -0.371744        2.000000        0.18094152        0.02966158        0.16687340        0.02048005        0.00242433        0.00567078        0.01093790        0.00379437        0.00473551
      58         -0.366410        2.000000        0.10672302        0.02139910        0.09513866        0.01082413        0.00142239        0.00446626        0.00638015        0.00148334        0.00319704
      59         -0.365584        2.000000        0.11881438        0.01485456        0.09356779        0.02540363        0.00390427        0.00189563        0.00768330        0.00416097        0.00203697
      60         -0.363546        2.000000        0.09760170        0.00947752        0.09816876        0.01950401        0.00299171        0.00137894        0.00484712        0.00302772        0.00119989
      61         -0.362304        2.000000        0.13110146        0.02271489        0.10602726        0.01854377        0.00270265        0.00381483        0.00768843        0.00304459        0.00368890
      62         -0.361879        2.000000        0.11007491        0.01303871        0.09153192        0.02141023        0.00323196        0.00204852        0.00665459        0.00309182        0.00188937
      63         -0.359057        2.000000        0.13102061        0.02397170        0.11479832        0.01143850        0.00184794        0.00401154        0.00767715        0.00287153        0.00373323
      64         -0.353086        2.000000        0.08244351        0.00562682        0.12494734        0.00727324        0.00115853        0.00097935        0.00461877        0.00134189        0.00068318
      65         -0.280303        2.000000        0.00145868        0.00275283        0.00654125        0.00314004        0.00013769        0.00020590        0.00074663        0.00028042        0.00020359
      66         -0.279771        2.000000        0.00156787        0.00529357        0.01476408        0.00807569        0.00016881        0.00026384        0.00082121        0.00025403        0.00033721
      67         -0.275957        2.000000        0.00171453        0.00344705        0.01182971        0.00343140        0.00022195        0.00048948        0.00136174        0.00018067        0.00029169
      68         -0.273438        2.000000        0.00717110        0.02159647        0.07948958        0.03901779        0.00152700        0.00075604        0.00486376        0.00070584        0.00227415
      69         -0.270595        2.000000        0.00732806        0.04580532        0.10670393        0.05133931        0.00250300        0.00078878        0.00461260        0.00049320        0.00131732
      70         -0.269237        2.000000        0.00614667        0.04745462        0.08924546        0.04531957        0.00135521        0.00090904        0.00316986        0.00042429        0.00197491
      71         -0.267310        2.000000        0.00412069        0.01678691        0.06467359        0.03127017        0.00070960        0.00038041        0.00237071        0.00035514        0.00128971
      72         -0.265563        2.000000        0.00735251        0.08382379        0.24030484        0.12378251        0.00131186        0.00084082        0.00755126        0.00121025        0.00230691
      73         -0.264246        2.000000        0.00488497        0.05107268        0.22779589        0.10340478        0.00202570        0.00089452        0.00899863        0.00153091        0.00080193
      74         -0.262813        2.000000        0.00372460        0.02323548        0.05704825        0.02211658        0.00104067        0.00043193        0.00210976        0.00049728        0.00105368
      75         -0.262279        2.000000        0.00502280        0.11701341        0.20502077        0.06419907        0.00271906        0.00136640        0.00668152        0.00088822        0.00077187
      76         -0.261558        2.000000        0.00468870        0.01982761        0.07915020        0.03149289        0.00105311        0.00064203        0.00310020        0.00042823        0.00164429
      77         -0.258718        2.000000        0.00341727        0.02106702        0.06235663        0.01782101        0.00105957        0.00035242        0.00367613        0.00037293        0.00092732
      78         -0.256654        2.000000        0.00327273        0.01436975        0.03232752        0.00820633        0.00068392        0.00040830        0.00316241        0.00021208        0.00062080
      79         -0.255791        2.000000        0.00410768        0.04760009        0.12360102        0.03302463        0.00100249        0.00066615        0.00519414        0.00080358        0.00245762
      80         -0.255466        2.000000        0.00528036        0.05341977        0.19764785        0.03999497        0.00275224        0.00142327        0.01425621        0.00112752        0.00260467
      81         -0.254296        2.000000        0.01047090        0.03748290        0.14623082        0.06090400        0.00325009        0.00144042        0.01071875        0.00121145        0.00301097
      82         -0.252594        2.000000        0.00367291        0.03554817        0.09151371        0.01807134        0.00158549        0.00098844        0.00629532        0.00056377        0.00122989
      83         -0.251818        2.000000        0.00655238        0.02773660        0.07071104        0.01955484        0.00150557        0.00046395        0.00552406        0.00046192        0.00186757
      84         -0.251198        2.000000        0.00604177        0.02037467        0.10647616        0.04316709        0.00244517        0.00094464        0.00561984        0.00087267        0.00200980
      85         -0.249975        2.000000        0.00596748        0.05160477        0.17881786        0.05169998        0.00298268        0.00074435        0.00980280        0.00086377        0.00335900
      86         -0.249809        2.000000        0.00919407        0.04254173        0.15981792        0.06797112        0.00343012        0.00288279        0.00929866        0.00096735        0.00350985
      87         -0.249425        2.000000        0.00926067        0.06306098        0.17484649        0.08088311        0.00407211        0.00174773        0.00586175        0.00137705        0.00493313
      88         -0.248260        2.000000        0.00652601        0.04185063        0.12123020        0.04480941        0.00265068        0.00087683        0.00394896        0.00084746        0.00327430
      89         -0.247638        2.000000        0.01350684        0.10572699        0.23825783        0.07336500        0.00577485        0.00134194        0.01274636        0.00180342        0.00450822
      90         -0.246985        2.000000        0.00628575        0.03408043        0.14960041        0.05156566        0.00289304        0.00132643        0.00814610        0.00148831        0.00255903
      91         -0.245936        2.000000        0.00757504        0.03797211        0.14769957        0.03363413        0.00260209        0.00174811        0.01555701        0.00149711        0.00188082
      92         -0.245568        2.000000        0.00551787        0.02507545        0.09585402        0.02900079        0.00126802        0.00124228        0.00910883        0.00101678        0.00230281
      93         -0.244483        2.000000        0.01392889        0.04773151        0.17214889        0.10439519        0.00544092        0.00189434        0.00967847        0.00180154        0.00460682
      94         -0.243587        2.000000        0.00561085        0.02617186        0.09938354        0.03922532        0.00212681        0.00172563        0.01050964        0.00142996        0.00098584
      95         -0.243233        2.000000        0.00526135        0.02279965        0.16003798        0.05291025        0.00250091        0.00181008        0.01290264        0.00095679        0.00270702
      96         -0.242724        2.000000        0.00705169        0.05673374        0.13853276        0.02362935        0.00247139        0.00174592        0.01266831        0.00133621        0.00307752
      97         -0.241801        2.000000        0.00699649        0.05945033        0.22539786        0.05275189        0.00305030        0.00228256        0.01467915        0.00157349        0.00485354
      98         -0.240518        2.000000        0.00935191        0.04844980        0.18613162        0.05440718        0.00482913        0.00104641        0.01089044        0.00138094        0.00248037
      99         -0.239146        2.000000        0.00562783        0.05973443        0.13911573        0.04917748        0.00291993        0.00146555        0.01605702        0.00218291        0.00144904
     100         -0.238557        2.000000        0.00803337        0.04870153        0.16714843        0.04305643        0.00236306        0.00124083        0.01911959        0.00216263        0.00302004
     101         -0.238089        2.000000        0.01061033        0.03635795        0.11854477        0.05985267        0.00319062        0.00196865        0.01278574        0.00144554        0.00250045
     102         -0.237597        2.000000        0.01032586        0.11332708        0.18135398        0.07196320        0.00319201        0.00265051        0.01382146        0.00313413        0.00585604
     103         -0.236219        2.000000        0.00363146        0.05896594        0.16720026        0.04082634        0.00137539        0.00263219        0.02553226        0.00185964        0.00181202
     104         -0.235511        2.000000        0.01603901        0.05866326        0.21744614        0.11048461        0.00602855        0.00380694        0.02428927        0.00253178        0.00302134
     105         -0.234252        2.000000        0.00987188        0.07556041        0.10376422        0.05309270        0.00404027        0.00133489        0.01257966        0.00212503        0.00303417
     106         -0.233571        2.000000        0.00862393        0.07046175        0.16430967        0.08861815        0.00466562        0.00295436        0.01582210        0.00292126        0.00294747
     107         -0.233046        2.000000        0.00471564        0.07097764        0.12537687        0.08224039        0.00357226        0.00256111        0.01378401        0.00240258        0.00222945
     108         -0.231717        2.000000        0.01265685        0.04570917        0.19006948        0.09357543        0.00604619        0.00235280        0.01996210        0.00167281        0.00589804
     109         -0.231423        2.000000        0.01839836        0.06899981        0.15426485        0.09901778        0.00723669        0.00281831        0.01688658        0.00202344        0.00500014
     110         -0.230842        2.000000        0.01506542        0.05197682        0.14932840        0.07278007        0.00426258        0.00249099        0.02040519        0.00326464        0.00452215
     111         -0.229254        2.000000        0.00954786        0.06962847        0.19615031        0.09518541        0.00424754        0.00592998        0.02356611        0.00357920        0.00216712
     112         -0.227854        2.000000        0.00996715        0.08165254        0.22132394        0.07122590        0.00429877        0.00327155        0.02977489        0.00470194        0.00358435
     113         -0.227506        2.000000        0.02086991        0.09804707        0.14200097        0.09586189        0.00633494        0.00166004        0.01365730        0.00294342        0.00743961
     114         -0.226249        2.000000        0.02414644        0.09177460        0.13032356        0.07813679        0.00740148        0.00205909        0.01632225        0.00126100        0.00683042
     115         -0.225288        2.000000        0.01901306        0.11490082        0.22008713        0.09210903        0.00597312        0.00384783        0.02484699        0.00411240        0.00726962
     116         -0.224910        2.000000        0.02036547        0.12344269        0.19019146        0.07928356        0.00706774        0.00236888        0.01681731        0.00277627        0.00773009
     117         -0.224563        2.000000        0.02817642        0.06997095        0.16329611        0.13057287        0.01033275        0.00165034        0.01779908        0.00250974        0.00606303
     118         -0.223407        2.000000        0.01731345        0.13459492        0.12104800        0.04526767        0.00352047        0.00126875        0.01419550        0.00189053        0.00873674
     119         -0.222901        2.000000        0.02002999        0.11995311        0.18301295        0.08558181        0.00415661        0.00333483        0.02028722        0.00166621        0.00948709
     120         -0.221857        2.000000        0.01247660        0.07671065        0.25467596        0.09405319        0.00511354        0.00554310        0.02190033        0.00295344        0.01072354
     121         -0.221162        2.000000        0.03173460        0.13901119        0.17421577        0.11750094        0.01104922        0.00249889        0.01837951        0.00236979        0.01166844
     122         -0.219870        2.000000        0.02230010        0.09728426        0.25748760        0.10528647        0.00741543        0.00286696        0.02532595        0.00474832        0.00730844
     123         -0.219256        2.000000        0.02585015        0.13321714        0.21633029        0.16875731        0.01373188        0.00437113        0.01895889        0.00583747        0.00807861
     124         -0.218850        2.000000        0.01160330        0.10893462        0.15052141        0.10702882        0.00722451        0.00358421        0.02243637        0.00312268        0.00367122
     125         -0.215274        2.000000        0.02535021        0.14811649        0.19012221        0.15646168        0.00988273        0.00307915        0.01440162        0.00510391        0.01076015
     126         -0.214033        2.000000        0.00764752        0.11480644        0.20709501        0.12308200        0.00652820        0.00515348        0.03570551        0.00560057        0.00605250
     127         -0.212945        2.000000        0.00709224        0.10057957        0.21737479        0.09968572        0.00228156        0.00341804        0.04306587        0.00613876        0.00517539
     128         -0.212443        2.000000        0.01867339        0.10226304        0.22424050        0.15134610        0.01035765        0.00518492        0.03895666        0.00388153        0.00776586
     129         -0.208766        2.000000        0.02927064        0.10286681        0.24043378        0.15501464        0.01388879        0.00433997        0.02980174        0.00675408        0.01040022
     130         -0.207847        2.000000        0.02097942        0.14046494        0.20340371        0.10617552        0.00724353        0.00216050        0.03272579        0.00462404        0.01279705
     131         -0.206543        2.000000        0.01675843        0.19382714        0.21449762        0.08196426        0.01270997        0.00579278        0.03111026        0.00718178        0.00689963
     132         -0.203854        2.000000        0.02014758        0.18633453        0.23639691        0.14698475        0.00758111        0.00698524        0.02864249        0.00753965        0.01688831
     133         -0.202850        2.000000        0.01734247        0.18445815        0.17982968        0.23964208        0.00735764        0.00739408        0.02950761        0.00843973        0.01644396
     134         -0.201667        2.000000        0.01644232        0.16424123        0.22847944        0.20778188        0.01219898        0.00709218        0.02762428        0.00965660        0.01428349
     135         -0.199527        2.000000        0.02242989        0.13408945        0.20128201        0.18943380        0.01242233        0.00611386        0.02386197        0.00724270        0.01359697
     136         -0.198230        2.000000        0.01371367        0.15516063        0.18259553        0.19294862        0.00986939        0.00852328        0.02789030        0.00531560        0.01185935
     137         -0.195236        2.000000        0.02069155        0.26127953        0.19124889        0.13015936        0.02021092        0.01060092        0.01690355        0.00931392        0.00825819
     138         -0.194949        2.000000        0.01932633        0.27539502        0.19269139        0.14404887        0.01868605        0.01008832        0.01896673        0.00954227        0.00770783
     139         -0.193658        2.000000        0.00339994        0.03548275        0.03310574        0.01421148        0.00207853        0.00111023        0.00379001        0.00105823        0.00220318
     140         -0.191488        2.000000        0.00200725        0.01792330        0.02019504        0.00870210        0.00151085        0.00054469        0.00198897        0.00063702        0.00090039
     141         -0.188429        2.000000        0.00031453        0.00316495        0.00491784        0.00178638        0.00017430        0.00012796        0.00060793        0.00008841        0.00025699
     142         -0.176720        2.000000        0.00005365        0.00075350        0.00208246        0.00088582        0.00005022        0.00004383        0.00025884        0.00004433        0.00006449
     143         -0.170834        2.000000        0.00003510        0.00024740        0.00095495        0.00101756        0.00002948        0.00002392        0.00006527        0.00004973        0.00002382
     144         -0.169494        2.000000        0.00010963        0.00097297        0.00114922        0.00093139        0.00005219        0.00005465        0.00015675        0.00002083        0.00005414