# Projected DOS for atomic kind H at iteration step i = 0, E(Fermi) =    -0.094008 a.u.
#     MO Eigenvalue [a.u.]      Occupation                 s                py                pz                px
       1         -0.557984        2.000000        0.11070865        0.00133387        0.07962503        0.00081157
       2         -0.544306        2.000000        0.14884688        0.00076921        0.11687328        0.00038359
       3         -0.537375        2.000000        0.10482969        0.00530319        0.07112648        0.00793075
       4         -0.534427        2.000000        0.09895261        0.00898215        0.07199224        0.00335764
       5         -0.530410        2.000000        0.10311170        0.00282842        0.07337455        0.00977629
       6         -0.529075        2.000000        0.11229663        0.00621718        0.06774556        0.00790189
       7         -0.526918        2.000000        0.10531593        0.01300832        0.06849627        0.00155804
       8         -0.525334        2.000000        0.10905979        0.00697708        0.08660504        0.00392841
       9         -0.521605        2.000000        0.10881705        0.00498725        0.06564333        0.01083158
      10         -0.519348        2.000000        0.10914405        0.00467011        0.08585789        0.00729893
      11         -0.518541        2.000000        0.11214458        0.00516414        0.08239455        0.00749299
      12         -0.518039        2.000000        0.10914990        0.00434669        0.08647807        0.00677010
      13         -0.513782        2.000000        0.11784155        0.00587583        0.08013379        0.00647129
      14         -0.511015        2.000000        0.11342721        0.01053023        0.07632092        0.00361092
      15         -0.491131        2.000000        0.11032072        0.01052500        0.06025207        0.00562867
      16         -0.487534        2.000000        0.10867985        0.00450166        0.05875378        0.01326141
      17         -0.484523        2.000000        0.11090241        0.00504354        0.05674574        0.01270665
      18         -0.483287        2.000000        0.11494564        0.00910933        0.05826061        0.00835955
      19         -0.481418        2.000000        0.11605950        0.01058695        0.05611581        0.00681669
      20         -0.481046        2.000000        0.11738783        0.00983299        0.05634230        0.00655384
      21         -0.478727        2.000000        0.11181217        0.00588464        0.05942537        0.00543343
      22         -0.478464        2.000000        0.11172796        0.00743472        0.06116493        0.00694970
      23         -0.476515        2.000000        0.11516987        0.00950092        0.05553158        0.00756545
      24         -0.475401        2.000000        0.11133023        0.00798854        0.06158317        0.00450493
      25         -0.472606        2.000000        0.11820345        0.00837147        0.05504953        0.00490986
      26         -0.471662        2.000000        0.11270230        0.00713740        0.05434568        0.00613018
      27         -0.469945        2.000000        0.11452493        0.00441361        0.05412028        0.00823600
      28         -0.468866        2.000000        0.11257953        0.00747949        0.05200635        0.00546013
      29         -0.468517        2.000000        0.11665590        0.00517469        0.05538848        0.01226207
      30         -0.467563        2.000000        0.11452530        0.00639375        0.05822799        0.00737734
      31         -0.467186        2.000000        0.11318074        0.00728609        0.05741502        0.00657814
      32         -0.463796        2.000000        0.12055284        0.00630951        0.05361778        0.00723658
      33         -0.423279        2.000000        0.17160481        0.00474566        0.04073950        0.01560247
      34         -0.420051        2.000000        0.16992391        0.00583358        0.03940803        0.01326422
      35         -0.417826        2.000000        0.17895992        0.01780772        0.03474889        0.00279769
      36         -0.414593        2.000000        0.20597779        0.00675092        0.03794890        0.00552764
      37         -0.411937        2.000000        0.17243345        0.00559877        0.03930825        0.00605904
      38         -0.410211        2.000000        0.19060978        0.00638256        0.03915926        0.00726822
      39         -0.409503        2.000000        0.17696199        0.00789535        0.03380018        0.00618529
      40         -0.408824        2.000000        0.16014698        0.00490597        0.03862043        0.00881436
      41         -0.407862        2.000000        0.18487625        0.00583983        0.03804166        0.00530019
      42         -0.406332        2.000000        0.18500079        0.00538500        0.04267684        0.00448518
      43         -0.403430        2.000000        0.18743489        0.00245633        0.04103931        0.00804645
      44         -0.402838        2.000000        0.18207463        0.00700378        0.04107661        0.00560072
      45         -0.401399        2.000000        0.19283524        0.00616346        0.04017502        0.00477399
      46         -0.399941        2.000000        0.19096542        0.00462074        0.03752243        0.00760175
      47         -0.399508        2.000000        0.18387162        0.00642219        0.03760926        0.00537606
      48         -0.397402        2.000000        0.18715125        0.00553046        0.03804112        0.00536050
      49         -0.396683        2.000000        0.18283571        0.00546060        0.03855028        0.00578610
      50         -0.395308        2.000000        0.18974567        0.00525776        0.03578591        0.00479410
      51         -0.386464        2.000000        0.30275491        0.00396062        0.02318281        0.00369594
      52         -0.380240        2.000000        0.31407533        0.00518320        0.01870236        0.00185648
      53         -0.379880        2.000000        0.32751638        0.00274300        0.01693855        0.00243156
      54         -0.376154        2.000000        0.30833015        0.00267901        0.01956350        0.00490390
      55         -0.374665        2.000000        0.30654671        0.00200696        0.02083619        0.00392262
      56         -0.372040        2.000000        0.31089042        0.00460970        0.02218493        0.00259948
      57         -0.371557        2.000000        0.31143834        0.00173963        0.01887653        0.00451104
      58         -0.366078        2.000000        0.29905416        0.00245790        0.04112319        0.00279210
      59         -0.363888        2.000000        0.29385804        0.00187181        0.04462585        0.00315076
      60         -0.362384        2.000000        0.29702953        0.00280823        0.04584956        0.00215604
      61         -0.361226        2.000000        0.29475569        0.00182083        0.04264391        0.00287670
      62         -0.359920        2.000000        0.29300258        0.00162836        0.04596149        0.00227262
      63         -0.357893        2.000000        0.29184539        0.00325296        0.04286874        0.00139081
      64         -0.354080        2.000000        0.31761138        0.00112804        0.04883706        0.00083980
      65         -0.281081        2.000000        0.23952411        0.00713606        0.00104094        0.02221357
      66         -0.278342        2.000000        0.23181414        0.01051800        0.00186526        0.02715139
      67         -0.274498        2.000000        0.22434028        0.02380292        0.00266078        0.01079797
      68         -0.272141        2.000000        0.21287064        0.01482474        0.00482797        0.02572896
      69         -0.269567        2.000000        0.21293730        0.02820582        0.00419414        0.01951976
      70         -0.268788        2.000000        0.20657132        0.01639225        0.00450328        0.02143157
      71         -0.266820        2.000000        0.22043591        0.01421574        0.00371186        0.02312446
      72         -0.264912        2.000000        0.22297153        0.01490293        0.00368330        0.02199028
      73         -0.263225        2.000000        0.21135653        0.01236069        0.00435738        0.02527269
      74         -0.262929        2.000000        0.22246927        0.01922667        0.00396051        0.01003695
      75         -0.261412        2.000000        0.21613934        0.01216375        0.00261507        0.02142237
      76         -0.260458        2.000000        0.19552870        0.01838995        0.00402627        0.01851663
      77         -0.258211        2.000000        0.22757681        0.01480042        0.00417772        0.01337938
      78         -0.255935        2.000000        0.27781938        0.01229993        0.00583297        0.00744126
      79         -0.254712        2.000000        0.21354982        0.01642161        0.00700478        0.01428900
      80         -0.253818        2.000000        0.24876621        0.01466056        0.00551366        0.01499328
      81         -0.253276        2.000000        0.19746491        0.01833346        0.00649266        0.01374470
      82         -0.252026        2.000000        0.24303639        0.01451942        0.00621393        0.01349720
      83         -0.251421        2.000000        0.21284909        0.01811338        0.00374299        0.01296125
      84         -0.250711        2.000000        0.20371139        0.01772417        0.00427107        0.01824813
      85         -0.249920        2.000000        0.21314669        0.01117699        0.00946540        0.02088637
      86         -0.249122        2.000000        0.22823037        0.01253340        0.00747946        0.01855514
      87         -0.248381        2.000000        0.24488931        0.02163299        0.00669689        0.01068896
      88         -0.248233        2.000000        0.25726761        0.01437666        0.00559171        0.01151430
      89         -0.246481        2.000000        0.22850920        0.01280448        0.00463815        0.01531871
      90         -0.246271        2.000000        0.19078438        0.01877733        0.00841806        0.02018075
      91         -0.245454        2.000000        0.22516184        0.01582330        0.00810142        0.01486328
      92         -0.245013        2.000000        0.25347118        0.01074567        0.00933339        0.01618316
      93         -0.244600        2.000000        0.18955178        0.01821517        0.01016792        0.01710049
      94         -0.243104        2.000000        0.24807402        0.01524750        0.00718321        0.01419560
      95         -0.242489        2.000000        0.22333816        0.02016885        0.00927798        0.00757649
      96         -0.242116        2.000000        0.23505169        0.01229355        0.00706990        0.01470555
      97         -0.241326        2.000000        0.22327487        0.01883041        0.01072838        0.01218092
      98         -0.241099        2.000000        0.25749733        0.00911309        0.00700875        0.01221240
      99         -0.240386        2.000000        0.19970851        0.01333686        0.00663134        0.01946934
     100         -0.238692        2.000000        0.25850626        0.01078868        0.00586721        0.01515776
     101         -0.238208        2.000000        0.23005359        0.01317170        0.01118529        0.01583655
     102         -0.237269        2.000000        0.26246663        0.01460039        0.00752735        0.01060702
     103         -0.236009        2.000000        0.22776987        0.01269221        0.00581295        0.01400218
     104         -0.235763        2.000000        0.26876401        0.01052775        0.00696724        0.01462577
     105         -0.234518        2.000000        0.22044695        0.01178171        0.00662962        0.01436388
     106         -0.233373        2.000000        0.25428250        0.01109394        0.00971448        0.01335434
     107         -0.232399        2.000000        0.18434194        0.01568061        0.00487357        0.01573196
     108         -0.231513        2.000000        0.23325073        0.00921679        0.00850077        0.01447233
     109         -0.230648        2.000000        0.27297899        0.01254560        0.01065477        0.01389222
     110         -0.230477        2.000000        0.24732011        0.01342739        0.00885221        0.01036424
     111         -0.229187        2.000000        0.26518782        0.01222185        0.00682758        0.01270449
     112         -0.228703        2.000000        0.23366632        0.01216835        0.00708438        0.01647415
     113         -0.226995        2.000000        0.14460102        0.02122228        0.00669644        0.01644957
     114         -0.226265        2.000000        0.28983227        0.01047761        0.00908172        0.01117531
     115         -0.225762        2.000000        0.15398259        0.01455974        0.00535559        0.01778663
     116         -0.224368        2.000000        0.20327894        0.01680883        0.00610069        0.01288445
     117         -0.223887        2.000000        0.21325185        0.01499211        0.00946636        0.01540952
     118         -0.222862        2.000000        0.22525298        0.01176291        0.00662893        0.01673826
     119         -0.222033        2.000000        0.19286349        0.02150058        0.00727670        0.01262288
     120         -0.221019        2.000000        0.21510716        0.01449292        0.00552662        0.01517717
     121         -0.220953        2.000000        0.20718736        0.02226634        0.00747354        0.01136616
     122         -0.219804        2.000000        0.25104235        0.01166553        0.00823718        0.01342087
     123         -0.219393        2.000000        0.22580672        0.01787492        0.00680684        0.01290980
     124         -0.217741        2.000000        0.22188349        0.01675128        0.00556343        0.01786822
     125         -0.216071        2.000000        0.19800880        0.01461426        0.00545503        0.01568128
     126         -0.213914        2.000000        0.24821555        0.01269016        0.00779473        0.01347309
     127         -0.213087        2.000000        0.29034071        0.00758650        0.00788465        0.01362005
     128         -0.212067        2.000000        0.28542638        0.01354994        0.00868794        0.01136434
     129         -0.208743        2.000000        0.20776123        0.01338719        0.00744134        0.01615549
     130         -0.207742        2.000000        0.30114316        0.00967284        0.00814025        0.01176284
     131         -0.205383        2.000000        0.22356807        0.01952426        0.00707485        0.01160087
     132         -0.204502        2.000000        0.21962490        0.01730086        0.01045759        0.01197846
     133         -0.200993        2.000000        0.22309767        0.01416821        0.01127671        0.01628615
     134         -0.199912        2.000000        0.24119698        0.01156212        0.01301136        0.01615471
     135         -0.198670        2.000000        0.23457756        0.01483435        0.01111008        0.01513218
     136         -0.197608        2.000000        0.14008922        0.01845171        0.00998659        0.02130500
     137         -0.195744        2.000000        0.15875510        0.02879422        0.00836488        0.01398114
     138         -0.194585        2.000000        0.15083765        0.02382160        0.01034874        0.01628093
     139         -0.192457        2.000000        0.02220928        0.02970844        0.00163532        0.01188900
     140         -0.191141        2.000000        0.02539636        0.00349361        0.00166391        0.03773118
     141         -0.187648        2.000000        0.01220978        0.03224466        0.00137866        0.01066942
     142         -0.175985        2.000000        0.00541047        0.00399193        0.00118926        0.03692410
     143         -0.170240        2.000000        0.00312941        0.02760415        0.00097072        0.01481527
     144         -0.168143        2.000000        0.00759061        0.02945675        0.00228002        0.01280727
     145         -0.166867        2.000000        0.00559979        0.02793742        0.00161586        0.01309417
     146         -0.166422        2.000000        0.00683948        0.03103719        0.00118194        0.01020187
     147         -0.163220        2.000000        0.00773303        0.00311890        0.00207012        0.04877930
     148         -0.161065        2.000000        0.00286947        0.01154803        0.00121754        0.02995746
     149         -0.159444        2.000000        0.00867284        0.03860258        0.00308466        0.01237141
     150         -0.156448        2.000000        0.01185876        0.03889018        0.00387606        0.01226299
     151         -0.141880        2.000000        0.00302305        0.00767715        0.00164862        0.04205125
     152         -0.137800        2.000000        0.00178710        0.00056318        0.00080694        0.03740163
     153         -0.136961        2.000000        0.00423844        0.03243215        0.00229509        0.01680072
     154         -0.135695        2.000000        0.00291134        0.01729684        0.00117484        0.03355838
     155         -0.134563        2.000000        0.00248204        0.04037081        0.00111956        0.00059583
     156         -0.133112        2.000000        0.00488677        0.03723655        0.00201381        0.01214272
     157         -0.129169        2.000000        0.00293218        0.02313419        0.00212981        0.02726542
     158         -0.127141        2.000000        0.00385059        0.03653687        0.00185122        0.01526444
     159         -0.099465        2.000000        0.00318433        0.00133631        0.00093722        0.04631557
     160         -0.094008        2.000000        0.00337623        0.04756127        0.00081826        0.00161014
     161         -0.025214        0.000000        0.02973489        0.00149797        0.01798171        0.00153511
     162         -0.018588        0.000000        0.01217434        0.00399697        0.01322738        0.00257246
     163         -0.017324        0.000000        0.00504131        0.00912128        0.01616285        0.00787739
     164         -0.014943        0.000000        0.00505799        0.01056528        0.01493989        0.01230567
     165         -0.012513        0.000000        0.00524463        0.01010100        0.01492487        0.01429485
     166         -0.005010        0.000000        0.01147043        0.02119640        0.01623260        0.01301014
     167         -0.003456        0.000000        0.01400346        0.01616933        0.01368577        0.01682645
     168         -0.000242        0.000000        0.01267033        0.01826500        0.01931026        0.01895513
     169          0.000515        0.000000        0.01450466        0.01043428        0.01639894        0.02712210
     170          0.001966        0.000000        0.01426424        0.01530212        0.01545051        0.02295091
     171          0.003437        0.000000        0.01300666        0.01832787        0.01328534        0.02385106
     172          0.003859        0.000000        0.01457403        0.01088213        0.01812589        0.02282292
     173          0.006788        0.000000        0.01747751        0.02606272        0.02241628        0.01511537
     174          0.008672        0.000000        0.01267857        0.02492465        0.01588702        0.00984075
     175          0.017781        0.000000        0.00916256        0.01872774        0.02201980        0.02966905
     176          0.022842        0.000000        0.01228090        0.03502423        0.02313947        0.01732762
     177          0.023489        0.000000        0.00970539        0.03103313        0.02203890        0.02471153
     178          0.027150        0.000000        0.01083935        0.02035187        0.02462829        0.03009477
     179          0.029033        0.000000        0.01056864        0.02241677        0.02454595        0.03117647
     180          0.031598        0.000000        0.01863193        0.02338494        0.03504375        0.02255483
     181          0.048837        0.000000        0.04498637        0.04781607        0.04456655        0.09994219
     182          0.049162        0.000000        0.04706250        0.06835332        0.04968826        0.08422547
     183          0.053413        0.000000        0.02192217        0.04824854        0.02537746        0.04193435
     184          0.053840        0.000000        0.04299082        0.03565651        0.03893723        0.09644196
     185          0.058656        0.000000        0.07017899        0.14279125        0.06675158        0.06543735
     186          0.061657        0.000000        0.07806494        0.09057528        0.06175241        0.08425424
     187          0.067814        0.000000        0.06868138        0.05290438        0.05869065        0.10854119
     188          0.071465        0.000000        0.06633723        0.06316022        0.06479258        0.08802780
     189          0.072350        0.000000        0.06671191        0.05658840        0.06094260        0.10655891
     190          0.073502        0.000000        0.07266482        0.10218889        0.05543539        0.06825062
     191          0.075844        0.000000        0.06202621        0.07964995        0.05502867        0.08727888
     192          0.077389        0.000000        0.06336999        0.06510025        0.05555793        0.10037723
     193          0.081165        0.000000        0.05396213        0.12454001        0.05535630        0.03709918
     194          0.082618        0.000000        0.06350545        0.07780109        0.07096436        0.10647854
     195          0.083869        0.000000        0.06722532        0.08375267        0.06057732        0.08443419
     196          0.084926        0.000000        0.05647132        0.10729352        0.06964143        0.03652213
     197          0.085918        0.000000        0.05644368        0.10755190        0.06533199        0.06841385
     198          0.088291        0.000000        0.05326900        0.10580634        0.06628712        0.06012962
     199          0.089578        0.000000        0.05530205        0.06089234        0.04879615        0.05872811
     200          0.090419        0.000000        0.07567760        0.06759084        0.05302460        0.06337674
     201          0.094116        0.000000        0.08438742        0.06270268        0.06133076        0.08255349
     202          0.094838        0.000000        0.05869721        0.05641184        0.03983142        0.05006605
     203          0.097020        0.000000        0.05772514        0.03401024        0.04292778        0.05743086
     204          0.097721        0.000000        0.06060141        0.05165587        0.04679512        0.06408513
     205          0.098544        0.000000        0.07698580        0.06379285        0.05797969        0.07137816
     206          0.100192        0.000000        0.07669450        0.05778366        0.05251267        0.07910060
     207          0.101300        0.000000        0.08780283        0.05848351        0.04792586        0.05189394
     208          0.102232        0.000000        0.09599588        0.05714505        0.05662663        0.06035143
     209          0.103089        0.000000        0.08985780        0.05752190        0.05217591        0.06391271
     210          0.103962        0.000000        0.09878827        0.04078961        0.04837102        0.05397069
