# Projected DOS for atomic kind Si at iteration step i = 0, E(Fermi) =    -0.093762 a.u.
#     MO Eigenvalue [a.u.]      Occupation                 s                py                pz                px               d-2               d-1                d0               d+1               d+2
       1         -0.557943        2.000000        0.01757944        0.00027227        0.00161503        0.00013215        0.00002253        0.00004320        0.00019854        0.00002811        0.00002483
       2         -0.545618        2.000000        0.64824920        0.00364247        0.02494487        0.00199560        0.00067221        0.00043830        0.03072626        0.00026795        0.00122868
       3         -0.536546        2.000000        0.00985449        0.00320507        0.00104885        0.00266622        0.00022761        0.00017745        0.00012626        0.00016778        0.00024793
       4         -0.535303        2.000000        0.00801910        0.00245408        0.00121398        0.00240482        0.00019413        0.00015269        0.00013700        0.00013871        0.00023023
       5         -0.530634        2.000000        0.01168888        0.00242994        0.00086822        0.00400413        0.00030010        0.00011870        0.00015046        0.00015988        0.00028363
       6         -0.528890        2.000000        0.12376701        0.04090768        0.00246047        0.01684812        0.00204808        0.00193468        0.00117012        0.00071368        0.00518437
       7         -0.527138        2.000000        0.13808354        0.04349324        0.00342584        0.02070002        0.00229182        0.00160709        0.00197141        0.00103427        0.00505842
       8         -0.526522        2.000000        0.27691272        0.08704311        0.00791456        0.03364969        0.00422737        0.00486015        0.00478465        0.00156589        0.01267238
       9         -0.522555        2.000000        0.30225948        0.04537543        0.00596703        0.09373818        0.01106249        0.00179499        0.00434691        0.00486395        0.00538356
      10         -0.521301        2.000000        0.27892180        0.04273967        0.00623071        0.08419859        0.01069675        0.00184301        0.00466925        0.00399629        0.00567859
      11         -0.520230        2.000000        0.41505479        0.06150325        0.00924944        0.12453316        0.01589524        0.00339344        0.00648838        0.00557230        0.00773476
      12         -0.518442        2.000000        0.46198555        0.08224769        0.00858449        0.12766461        0.01605313        0.00413079        0.00830062        0.00574194        0.01020617
      13         -0.514881        2.000000        0.49058284        0.09848229        0.00893496        0.12929501        0.01547903        0.00432343        0.00662920        0.00613392        0.01379073
      14         -0.512519        2.000000        0.49608770        0.17976380        0.00785967        0.05397391        0.00726379        0.00877749        0.00686072        0.00258149        0.02229711
      15         -0.490628        2.000000        0.00275061        0.00204319        0.00064293        0.00101066        0.00024261        0.00030209        0.00017654        0.00018805        0.00020403
      16         -0.488317        2.000000        0.00530593        0.00126719        0.00051706        0.00397421        0.00038813        0.00023771        0.00016790        0.00035304        0.00050874
      17         -0.484213        2.000000        0.00882383        0.00275377        0.00038412        0.00517305        0.00077337        0.00021193        0.00018063        0.00041511        0.00070733
      18         -0.483067        2.000000        0.01641989        0.00679449        0.00055470        0.00798595        0.00132015        0.00057355        0.00017783        0.00061823        0.00133047
      19         -0.481697        2.000000        0.18305087        0.07215244        0.00092469        0.07762516        0.01540334        0.00454853        0.00061198        0.00518924        0.01567717
      20         -0.480078        2.000000        0.00577189        0.00233057        0.00046288        0.00278774        0.00039006        0.00046056        0.00016071        0.00025285        0.00067746
      21         -0.479874        2.000000        0.18748184        0.06311176        0.00154334        0.08749606        0.01672160        0.00381183        0.00038403        0.00699034        0.01553644
      22         -0.478312        2.000000        0.00803990        0.00425145        0.00052556        0.00309811        0.00071216        0.00039259        0.00018873        0.00038232        0.00071255
      23         -0.477414        2.000000        0.15915896        0.05893290        0.00076108        0.07417002        0.01338748        0.00490254        0.00044469        0.00442168        0.01336962
      24         -0.476379        2.000000        0.25890648        0.10366095        0.00144410        0.10206393        0.02653017        0.00774552        0.00038305        0.00752483        0.02175222
      25         -0.474376        2.000000        0.37913302        0.10634461        0.00179166        0.19752840        0.03728085        0.00682733        0.00081490        0.01506247        0.03317035
      26         -0.473214        2.000000        0.39593813        0.17064995        0.00162385        0.12986056        0.04519710        0.01350790        0.00060107        0.00953922        0.03424800
      27         -0.472088        2.000000        0.39055196        0.12304983        0.00135171        0.16402794        0.05763978        0.00922286        0.00119714        0.01347012        0.03164592
      28         -0.470439        2.000000        0.40375925        0.16517581        0.00116900        0.12415913        0.04238831        0.01266860        0.00138418        0.00981581        0.04493307
      29         -0.469865        2.000000        0.37315420        0.18398415        0.00153359        0.08862431        0.01648200        0.01422019        0.00136219        0.00593589        0.06793599
      30         -0.468249        2.000000        0.03168337        0.01442093        0.00037128        0.00876727        0.00214144        0.00116415        0.00017722        0.00072192        0.00463555
      31         -0.467808        2.000000        0.39559654        0.15937727        0.00103944        0.15001927        0.03404343        0.01150906        0.00133856        0.00912302        0.04363411
      32         -0.463886        2.000000        0.40178305        0.11759177        0.00230760        0.16404987        0.05777097        0.00850725        0.00155941        0.01301718        0.03765270
      33         -0.422660        2.000000        0.01141474        0.00592022        0.00412331        0.01134709        0.00035619        0.00065431        0.00099695        0.00078779        0.00028670
      34         -0.420122        2.000000        0.01517176        0.00727558        0.00438801        0.01581446        0.00037034        0.00069927        0.00136870        0.00132548        0.00023609
      35         -0.417967        2.000000        0.02964202        0.04139131        0.00953805        0.00152726        0.00024989        0.00358664        0.00228743        0.00037393        0.00101245
      36         -0.413592        2.000000        0.09743963        0.03484029        0.02042204        0.09333252        0.00421378        0.00447322        0.00562454        0.00982463        0.00185942
      37         -0.411496        2.000000        0.21817885        0.21358740        0.03627565        0.07664339        0.00396254        0.02090789        0.01075550        0.00899194        0.00795482
      38         -0.410755        2.000000        0.07177695        0.05801806        0.01411375        0.03720883        0.00173437        0.00584293        0.00408904        0.00476553        0.00276036
      39         -0.410173        2.000000        0.24993185        0.08801869        0.04116278        0.24354788        0.00915718        0.01128851        0.01127948        0.02440632        0.00388656
      40         -0.409588        2.000000        0.15948114        0.09588505        0.02528785        0.11622098        0.00526514        0.01002892        0.00860066        0.01213480        0.00504993
      41         -0.406998        2.000000        0.11320965        0.06506488        0.02792186        0.04881369        0.00870197        0.00944308        0.00843391        0.00708056        0.00954407
      42         -0.406299        2.000000        0.01538518        0.01710242        0.00285103        0.00278356        0.00036629        0.00215645        0.00082634        0.00065538        0.00083518
      43         -0.403739        2.000000        0.19946411        0.08344088        0.04227528        0.10786068        0.01960217        0.01195061        0.01337160        0.01402905        0.01563862
      44         -0.402745        2.000000        0.26030819        0.13525138        0.06632524        0.10281455        0.01656747        0.01906623        0.01651003        0.01575596        0.03029244
      45         -0.402528        2.000000        0.03630709        0.01599137        0.01253372        0.01757516        0.00398897        0.00255101        0.00284419        0.00316496        0.00280771
      46         -0.401500        2.000000        0.05361693        0.02934226        0.01618854        0.01939624        0.00325349        0.00570735        0.00354477        0.00300514        0.00675237
      47         -0.400617        2.000000        0.29364673        0.12719091        0.06000189        0.13920199        0.03315041        0.01738513        0.02175343        0.01766907        0.02340290
      48         -0.399587        2.000000        0.28588457        0.13583443        0.06298735        0.14250305        0.03062952        0.01757224        0.01988195        0.02010118        0.02297120
      49         -0.398029        2.000000        0.24246701        0.13078607        0.05842145        0.09474279        0.01515490        0.01970133        0.01386113        0.01310430        0.02873002
      50         -0.397164        2.000000        0.28996961        0.11570148        0.07497247        0.14859376        0.03355332        0.01353324        0.02142605        0.02193781        0.02137114
      51         -0.385139        2.000000        0.03489300        0.00706472        0.08572610        0.00882168        0.00191817        0.00283640        0.00781328        0.00393068        0.00229276
      52         -0.380456        2.000000        0.06276084        0.01759269        0.15508380        0.00379565        0.00092021        0.00947447        0.00927663        0.00103591        0.00475778
      53         -0.378228        2.000000        0.05793714        0.00605514        0.16578470        0.00833658        0.00253486        0.00249485        0.00822546        0.00481486        0.00135041
      54         -0.377036        2.000000        0.08011086        0.01269565        0.17335439        0.01585752        0.00468929        0.00670315        0.01089290        0.00881561        0.00335071
      55         -0.375251        2.000000        0.08075765        0.01562285        0.14388613        0.01373934        0.00422877        0.00777037        0.01134356        0.00699239        0.00480145
      56         -0.373556        2.000000        0.12249847        0.02005430        0.21881171        0.03074630        0.00791673        0.00747722        0.01599673        0.01421600        0.00408620
      57         -0.371744        2.000000        0.05840866        0.01781039        0.13591737        0.00321960        0.00087470        0.00729930        0.00831748        0.00229098        0.00421407
      58         -0.366410        2.000000        0.11850584        0.03267162        0.18426712        0.01888033        0.00522914        0.01138885        0.01466218        0.00541177        0.00826240
      59         -0.365584        2.000000        0.12047424        0.02096161        0.16437875        0.03386660        0.00899081        0.00731326        0.01358549        0.01008700        0.00454428
      60         -0.363546        2.000000        0.12612107        0.01873705        0.18632864        0.03379794        0.00870462        0.00545838        0.01414135        0.01400566        0.00459835
      61         -0.362304        2.000000        0.10976536        0.02669462        0.15744125        0.02107611        0.00498883        0.00869052        0.01149390        0.00710819        0.00657609
      62         -0.361879        2.000000        0.12625523        0.02975367        0.16883736        0.02918903        0.00695868        0.00837563        0.01530156        0.01006629        0.00681195
      63         -0.359057        2.000000        0.10634193        0.03082774        0.15863212        0.01792694        0.00425079        0.00942947        0.01179000        0.00579746        0.00738894
      64         -0.353086        2.000000        0.09929509        0.01208251        0.25272139        0.01561914        0.00295488        0.00374416        0.01160656        0.00483909        0.00309656
      65         -0.280303        2.000000        0.00465649        0.08332665        0.40107083        0.19135495        0.00201327        0.00384451        0.02029235        0.00551377        0.00231174
      66         -0.279771        2.000000        0.00369149        0.09169584        0.38489002        0.18472332        0.00170164        0.00343568        0.01910935        0.00479341        0.00187900
      67         -0.275957        2.000000        0.00719056        0.20494125        0.39996879        0.07469078        0.00660894        0.00358317        0.01709015        0.00374977        0.00283082
      68         -0.273438        2.000000        0.01348465        0.07792690        0.31356805        0.12399287        0.00993762        0.00616821        0.01808292        0.00546666        0.01264613
      69         -0.270595        2.000000        0.01212400        0.09001508        0.28242543        0.10618365        0.01029294        0.00475504        0.01082466        0.00340598        0.00817828
      70         -0.269237        2.000000        0.01428718        0.09412876        0.30363647        0.09579511        0.01182736        0.00516649        0.01306160        0.00367291        0.00876320
      71         -0.267310        2.000000        0.01484014        0.10214991        0.30068808        0.15689290        0.00827737        0.00967151        0.01935102        0.00203136        0.01647178
      72         -0.265563        2.000000        0.00703044        0.04609213        0.14376356        0.03915550        0.00306404        0.00378582        0.00973888        0.00199784        0.00646708
      73         -0.264246        2.000000        0.00904585        0.06674187        0.13606503        0.09503289        0.00588403        0.00586445        0.00740295        0.00332414        0.00862705
      74         -0.262813        2.000000        0.01850667        0.08458586        0.34335066        0.14761031        0.01602476        0.00606651        0.01475441        0.00497500        0.01178777
      75         -0.262279        2.000000        0.00781588        0.05323554        0.16258444        0.06229066        0.00553381        0.00436532        0.02188575        0.00216657        0.00573958
      76         -0.261558        2.000000        0.01714984        0.07472210        0.32109566        0.14374755        0.01392210        0.00530427        0.01766721        0.00410686        0.01395916
      77         -0.258718        2.000000        0.00887197        0.13920405        0.24422754        0.16844955        0.01109644        0.00830333        0.03961025        0.00607152        0.00796481
      78         -0.256654        2.000000        0.01353323        0.18811557        0.23934201        0.14015775        0.01092383        0.00687515        0.05668587        0.00775465        0.01027125
      79         -0.255791        2.000000        0.01582200        0.08959695        0.20972726        0.15467874        0.01458657        0.00466075        0.03054247        0.00468623        0.00675200
      80         -0.255466        2.000000        0.00955621        0.09897200        0.17517851        0.05539035        0.00306328        0.00533226        0.03005246        0.00256691        0.00912494
      81         -0.254296        2.000000        0.02071779        0.12312411        0.16752506        0.11009882        0.01219181        0.00412333        0.03187170        0.00368459        0.01033679
      82         -0.252594        2.000000        0.00543139        0.15444056        0.22785545        0.10158006        0.00703138        0.00545062        0.04693694        0.01093315        0.00352413
      83         -0.251818        2.000000        0.01450826        0.18434851        0.21044522        0.12579274        0.01058642        0.00297760        0.04608739        0.01116171        0.01015368
      84         -0.251198        2.000000        0.02125593        0.08052230        0.24174567        0.12161876        0.01494600        0.00515954        0.04417553        0.00352037        0.00933308
      85         -0.249975        2.000000        0.00793375        0.11791808        0.14077707        0.12097738        0.00866490        0.00505651        0.02912717        0.00660743        0.00503403
      86         -0.249809        2.000000        0.01022405        0.06649444        0.18486894        0.07367905        0.00805664        0.00673893        0.04415925        0.00443863        0.00693532
      87         -0.249425        2.000000        0.01547576        0.10229413        0.13462385        0.11292605        0.01163646        0.00745876        0.01822128        0.00289266        0.01035383
      88         -0.248260        2.000000        0.01190343        0.18827935        0.14892316        0.14070655        0.01468348        0.00451986        0.02673564        0.00922042        0.00904584
      89         -0.247638        2.000000        0.01269636        0.04338300        0.10475360        0.06600563        0.01153250        0.00273509        0.02042288        0.00335258        0.00500682
      90         -0.246985        2.000000        0.01446939        0.08030418        0.19288686        0.12568875        0.01034350        0.00479159        0.03658820        0.00572042        0.00762389
      91         -0.245936        2.000000        0.02073489        0.12868187        0.19661897        0.03505959        0.00531291        0.00284259        0.04637806        0.00375324        0.01846217
      92         -0.245568        2.000000        0.02348493        0.18033985        0.17919014        0.13693472        0.01210935        0.00493110        0.03530935        0.00525112        0.02476988
      93         -0.244483        2.000000        0.01532931        0.09711864        0.14859095        0.06667162        0.01058041        0.00434128        0.02702396        0.00561929        0.00894687
      94         -0.243587        2.000000        0.01820313        0.10991308        0.22678303        0.10659328        0.01441090        0.00614888        0.03726007        0.00862215        0.01473789
      95         -0.243233        2.000000        0.01033611        0.08330011        0.18812050        0.08546374        0.00652422        0.00778126        0.04802650        0.00384151        0.01067373
      96         -0.242724        2.000000        0.02378336        0.12456323        0.17092130        0.11405691        0.01469881        0.00636449        0.02627415        0.00371542        0.01640385
      97         -0.241801        2.000000        0.01242457        0.08302654        0.13738922        0.06857371        0.00741144        0.00288664        0.02592330        0.00257724        0.01408642
      98         -0.240518        2.000000        0.02013408        0.09683433        0.13471262        0.12229355        0.01428958        0.00378279        0.02733394        0.00237857        0.01450745
      99         -0.239146        2.000000        0.01175500        0.07363503        0.17769774        0.10246800        0.01090344        0.00697972        0.04134438        0.00327582        0.00849544
     100         -0.238557        2.000000        0.01217626        0.04836144        0.17499318        0.07608644        0.00991123        0.00332897        0.05801636        0.00430840        0.00522350
     101         -0.238089        2.000000        0.01396214        0.09391550        0.17568533        0.11967650        0.01374085        0.00496769        0.04681254        0.00585526        0.01073419
     102         -0.237597        2.000000        0.01273717        0.09794250        0.13095703        0.04333387        0.00682123        0.00360305        0.02529297        0.00287845        0.01076083
     103         -0.236219        2.000000        0.00606835        0.05183339        0.17923935        0.03724443        0.00372624        0.00366176        0.06035668        0.00329836        0.00484371
     104         -0.235511        2.000000        0.00626976        0.06065681        0.08519452        0.07999156        0.00569920        0.00362374        0.02722247        0.00307879        0.00769622
     105         -0.234252        2.000000        0.02248575        0.11174633        0.17504717        0.09658180        0.01153764        0.00491937        0.04082147        0.00441041        0.02065028
     106         -0.233571        2.000000        0.00788599        0.10035524        0.13277005        0.07793620        0.00908912        0.00647277        0.02419549        0.00534761        0.00913666
     107         -0.233046        2.000000        0.01214021        0.11604880        0.13659384        0.13720782        0.01266370        0.00873745        0.01871465        0.00652589        0.01402057
     108         -0.231717        2.000000        0.00798574        0.04672343        0.11892060        0.10884183        0.00871962        0.00586679        0.03085556        0.00338930        0.00974677
     109         -0.231423        2.000000        0.00876731        0.06368580        0.15316342        0.06266059        0.01040602        0.00519582        0.03547922        0.00684744        0.00580387
     110         -0.230842        2.000000        0.01689255        0.11281817        0.16635456        0.04582434        0.00814913        0.00345911        0.03394518        0.00340969        0.01661003
     111         -0.229254        2.000000        0.00611078        0.02382555        0.12785975        0.06013008        0.00564132        0.00489015        0.03153519        0.00326125        0.00606148
     112         -0.227854        2.000000        0.00843355        0.07715113        0.10101464        0.05175253        0.00654200        0.00472203        0.01681353        0.00541168        0.00857968
     113         -0.227506        2.000000        0.00911640        0.10297171        0.14074861        0.06268639        0.01351235        0.00500107        0.03022267        0.00564784        0.00654098
     114         -0.226249        2.000000        0.00941027        0.09034031        0.10970050        0.17482680        0.01001017        0.00912717        0.01675818        0.00606055        0.01635219
     115         -0.225288        2.000000        0.00505042        0.04566771        0.07932764        0.06951830        0.00563225        0.00276801        0.02049995        0.00450049        0.00665543
     116         -0.224910        2.000000        0.00781041        0.05970411        0.10747512        0.08624407        0.00970038        0.00464851        0.02184051        0.00444923        0.00934035
     117         -0.224563        2.000000        0.00634371        0.09458930        0.10675981        0.07371279        0.01176538        0.00502882        0.02299226        0.00674150        0.00793119
     118         -0.223407        2.000000        0.00641786        0.15562532        0.11881339        0.09939811        0.01496996        0.00588808        0.01810615        0.00928976        0.01086729
     119         -0.222901        2.000000        0.00734691        0.06629710        0.11642575        0.06127103        0.00960658        0.00452971        0.02300546        0.00460394        0.00669690
     120         -0.221857        2.000000        0.00316802        0.05746693        0.08644814        0.03971696        0.00744024        0.00350030        0.01317930        0.00426004        0.00419017
     121         -0.221162        2.000000        0.00651005        0.07712682        0.08740425        0.04929603        0.00979273        0.00378438        0.01721016        0.00495924        0.00630384
     122         -0.219870        2.000000        0.00387608        0.03268961        0.07194829        0.04929964        0.00451220        0.00368180        0.01908089        0.00248613        0.00437224
     123         -0.219256        2.000000        0.00282523        0.01577921        0.07352239        0.01840566        0.00247568        0.00250948        0.02271059        0.00214543        0.00283133
     124         -0.218850        2.000000        0.00788060        0.08246786        0.12189629        0.05304372        0.01353559        0.00424190        0.02571100        0.00621526        0.00538138
     125         -0.215274        2.000000        0.00474701        0.03780019        0.09487558        0.02670657        0.00511561        0.00287872        0.02306578        0.00315565        0.00469663
     126         -0.214033        2.000000        0.00223217        0.02847375        0.08629729        0.01824226        0.00300090        0.00312908        0.02145123        0.00284931        0.00373186
     127         -0.212945        2.000000        0.00518147        0.03389266        0.08643894        0.02957959        0.00522153        0.00285448        0.02261933        0.00246738        0.00434993
     128         -0.212443        2.000000        0.00223320        0.03286766        0.06172694        0.01778802        0.00483414        0.00213812        0.01336833        0.00265686        0.00146955
     129         -0.208766        2.000000        0.00189507        0.01407086        0.06634901        0.01602324        0.00196878        0.00210727        0.01706498        0.00189635        0.00235399
     130         -0.207847        2.000000        0.00444911        0.02923890        0.08371627        0.03163636        0.00690103        0.00236101        0.01946761        0.00392228        0.00275966
     131         -0.206543        2.000000        0.00305495        0.03230567        0.06376726        0.01898836        0.00316065        0.00293109        0.01641035        0.00289899        0.00303607
     132         -0.203854        2.000000        0.00074284        0.01667403        0.03875684        0.01378563        0.00097911        0.00176347        0.00865189        0.00096495        0.00196592
     133         -0.202850        2.000000        0.00073892        0.01634459        0.03246277        0.02191584        0.00175114        0.00135517        0.00761457        0.00118714        0.00140683
     134         -0.201667        2.000000        0.00068908        0.00976366        0.02785608        0.01276569        0.00144449        0.00128097        0.00671392        0.00094864        0.00082904
     135         -0.199527        2.000000        0.00211505        0.01631319        0.06028381        0.02111710        0.00226104        0.00137405        0.02069381        0.00263917        0.00091557
     136         -0.198230        2.000000        0.00254948        0.01211112        0.06646375        0.01508083        0.00206764        0.00168959        0.02129803        0.00149046        0.00181102
     137         -0.195236        2.000000        0.00060487        0.04860276        0.01601201        0.05947685        0.00161795        0.00193878        0.00317091        0.00238540        0.00142444
     138         -0.194949        2.000000        0.00050146        0.01474843        0.01441797        0.05334485        0.00165464        0.00095529        0.00285134        0.00224532        0.00078795
     139         -0.193658        2.000000        0.00132861        0.51002798        0.02911669        0.23222465        0.00496752        0.01621179        0.00440060        0.00951127        0.01074340
     140         -0.191488        2.000000        0.00187530        0.09980743        0.02744105        0.68954286        0.01438348        0.00477638        0.00607622        0.02249015        0.00413059
     141         -0.188429        2.000000        0.00213620        0.61159797        0.02650006        0.23352309        0.00634550        0.01918013        0.00551480        0.01193504        0.01068610
     142         -0.176720        2.000000        0.00204855        0.06929608        0.01960364        0.74216133        0.07035483        0.00345948        0.00434228        0.02332410        0.00835388
     143         -0.170834        2.000000        0.00090238        0.52059277        0.01304574        0.30516438        0.03064281        0.01485237        0.00192171        0.01007028        0.05176238
     144         -0.169494        2.000000        0.00125299        0.60517846        0.02246162        0.20243723        0.02038487        0.01635563        0.00465661        0.00801707        0.06209276