# Projected DOS for atomic kind H at iteration step i = 0, E(Fermi) =    -0.096079 a.u.
#     MO Eigenvalue [a.u.]      Occupation                 s                py                pz                px
       1         -0.559288        2.000000        0.11072941        0.00144585        0.08096124        0.00110940
       2         -0.541713        2.000000        0.15159483        0.00081864        0.11368860        0.00036250
       3         -0.538038        2.000000        0.09923134        0.00533779        0.07332266        0.00714605
       4         -0.535939        2.000000        0.10519381        0.00734521        0.07339391        0.00510611
       5         -0.531287        2.000000        0.10274487        0.00478256        0.07295277        0.00784728
       6         -0.529838        2.000000        0.10718270        0.00692733        0.07192209        0.00566427
       7         -0.527141        2.000000        0.10015838        0.01112847        0.06851668        0.00451027
       8         -0.522227        2.000000        0.11096694        0.00361267        0.06857596        0.01138144
       9         -0.520938        2.000000        0.10953922        0.00752570        0.08448551        0.00467474
      10         -0.517940        2.000000        0.11553711        0.00745483        0.08200537        0.00489144
      11         -0.516031        2.000000        0.11634249        0.00401603        0.08295998        0.00844368
      12         -0.514470        2.000000        0.11489137        0.00565694        0.08153195        0.00713679
      13         -0.512182        2.000000        0.11719000        0.00598707        0.07934973        0.00720906
      14         -0.509300        2.000000        0.11838293        0.00982829        0.07704733        0.00405034
      15         -0.492131        2.000000        0.10822695        0.00980352        0.06089867        0.00578232
      16         -0.487670        2.000000        0.11306455        0.00662752        0.05910892        0.01102407
      17         -0.486703        2.000000        0.11280483        0.00656004        0.05635848        0.01290935
      18         -0.484043        2.000000        0.10984207        0.00969639        0.05683252        0.00714568
      19         -0.481845        2.000000        0.11293515        0.01004539        0.05725695        0.00812795
      20         -0.481081        2.000000        0.12133615        0.00530897        0.06264137        0.00500614
      21         -0.479659        2.000000        0.11160203        0.00791260        0.05672219        0.00911685
      22         -0.476226        2.000000        0.11666663        0.00948539        0.05529362        0.00663595
      23         -0.475176        2.000000        0.11208935        0.00792328        0.06109944        0.00643306
      24         -0.472761        2.000000        0.11494933        0.00817024        0.05612375        0.00743816
      25         -0.471802        2.000000        0.12229242        0.00647287        0.05440597        0.00929155
      26         -0.470875        2.000000        0.11621165        0.00680650        0.06221563        0.00704063
      27         -0.469230        2.000000        0.11918911        0.00916932        0.05642870        0.00408336
      28         -0.468983        2.000000        0.11469098        0.00976404        0.05203358        0.00584651
      29         -0.467687        2.000000        0.12079497        0.00402183        0.05530434        0.00764174
      30         -0.465162        2.000000        0.11972280        0.00492759        0.05463714        0.00933360
      31         -0.464885        2.000000        0.12148516        0.00904920        0.05390903        0.00420515
      32         -0.462422        2.000000        0.11943713        0.00615701        0.05420917        0.00783122
      33         -0.423754        2.000000        0.16845042        0.00453219        0.04102279        0.01603828
      34         -0.421620        2.000000        0.17439156        0.00587475        0.04225896        0.01076253
      35         -0.419262        2.000000        0.18470679        0.01636310        0.03547012        0.00508055
      36         -0.412280        2.000000        0.19437583        0.00551061        0.04127906        0.00654631
      37         -0.410422        2.000000        0.17312868        0.00688415        0.03407740        0.00729421
      38         -0.409947        2.000000        0.17993941        0.00714656        0.03541760        0.01018852
      39         -0.409194        2.000000        0.19447451        0.00582324        0.03971933        0.00568613
      40         -0.407959        2.000000        0.18017911        0.00839373        0.03891686        0.00376923
      41         -0.407544        2.000000        0.17589882        0.00748729        0.03725226        0.00654088
      42         -0.406737        2.000000        0.17970790        0.00625558        0.03973408        0.00510445
      43         -0.405555        2.000000        0.19327613        0.00530726        0.04199981        0.00688940
      44         -0.404398        2.000000        0.19301899        0.00674855        0.03895672        0.00345051
      45         -0.401440        2.000000        0.18954937        0.00609452        0.04278634        0.00534320
      46         -0.399164        2.000000        0.19109255        0.00676480        0.03967671        0.00623179
      47         -0.398108        2.000000        0.19384570        0.00539400        0.03588260        0.00553134
      48         -0.397804        2.000000        0.19091525        0.00473966        0.03852099        0.00613964
      49         -0.395362        2.000000        0.19162884        0.00504673        0.03639633        0.00491565
      50         -0.393595        2.000000        0.19290626        0.00495209        0.03725717        0.00419165
      51         -0.388447        2.000000        0.31256448        0.00371392        0.02320944        0.00346317
      52         -0.382542        2.000000        0.31421277        0.00400350        0.02243822        0.00308965
      53         -0.380049        2.000000        0.31743877        0.00230143        0.02063341        0.00359160
      54         -0.377545        2.000000        0.30756155        0.00446438        0.02318984        0.00458459
      55         -0.376334        2.000000        0.32042637        0.00207706        0.01538300        0.00244726
      56         -0.374899        2.000000        0.31272764        0.00561666        0.01792143        0.00175837
      57         -0.368864        2.000000        0.31154946        0.00217116        0.01747752        0.00381407
      58         -0.366123        2.000000        0.29896832        0.00203956        0.03974805        0.00267729
      59         -0.363744        2.000000        0.29633496        0.00210297        0.04134760        0.00338750
      60         -0.363392        2.000000        0.29654839        0.00310265        0.04595459        0.00172714
      61         -0.361842        2.000000        0.29987156        0.00285984        0.04207306        0.00241744
      62         -0.360588        2.000000        0.29480906        0.00266298        0.04690360        0.00318430
      63         -0.357997        2.000000        0.29370905        0.00221499        0.04588763        0.00207629
      64         -0.354375        2.000000        0.32005856        0.00110771        0.05078806        0.00136644
      65         -0.278709        2.000000        0.22602590        0.01160189        0.00214688        0.02799588
      66         -0.276996        2.000000        0.23064058        0.00858554        0.00107648        0.02476589
      67         -0.275156        2.000000        0.22262353        0.03252600        0.00187051        0.00483875
      68         -0.270731        2.000000        0.20471103        0.02034834        0.00566984        0.02325184
      69         -0.270359        2.000000        0.21166056        0.02359953        0.00412939        0.02064375
      70         -0.267377        2.000000        0.21524547        0.01297124        0.00363711        0.02496303
      71         -0.266277        2.000000        0.21502089        0.01186642        0.00373270        0.02317374
      72         -0.264668        2.000000        0.20921137        0.02336001        0.00340332        0.01261094
      73         -0.262561        2.000000        0.21015116        0.01547338        0.00499109        0.02124601
      74         -0.261885        2.000000        0.21908518        0.02040785        0.00507666        0.01489489
      75         -0.259753        2.000000        0.20597454        0.01885984        0.00359014        0.01986737
      76         -0.259363        2.000000        0.21905730        0.01082550        0.00378764        0.02360270
      77         -0.257384        2.000000        0.23919602        0.01011893        0.00450881        0.01540761
      78         -0.255267        2.000000        0.22715772        0.02061075        0.00530295        0.01032278
      79         -0.254393        2.000000        0.22864874        0.01278193        0.00430755        0.01604053
      80         -0.253683        2.000000        0.25445932        0.01794324        0.00497229        0.01087064
      81         -0.253010        2.000000        0.27662204        0.01410813        0.00722786        0.01291312
      82         -0.252237        2.000000        0.25190506        0.01297299        0.00957877        0.01157981
      83         -0.251139        2.000000        0.26629723        0.01200760        0.00473090        0.01237040
      84         -0.250843        2.000000        0.25692695        0.01903754        0.00581778        0.00816137
      85         -0.250257        2.000000        0.22898186        0.01551160        0.00731921        0.01435174
      86         -0.249883        2.000000        0.26285439        0.01182105        0.00683433        0.01528668
      87         -0.248687        2.000000        0.27432141        0.00943671        0.00879791        0.01590131
      88         -0.247725        2.000000        0.21408584        0.01787053        0.00519867        0.01402632
      89         -0.246929        2.000000        0.24531216        0.01136162        0.00631380        0.01521080
      90         -0.246491        2.000000        0.26786679        0.01101091        0.01060116        0.01291347
      91         -0.245473        2.000000        0.27809058        0.01016296        0.01163669        0.01579302
      92         -0.244581        2.000000        0.24288678        0.01138955        0.01220411        0.01737138
      93         -0.244018        2.000000        0.19846637        0.02317469        0.00739101        0.01011375
      94         -0.243366        2.000000        0.20079371        0.02178749        0.00852394        0.01256825
      95         -0.242359        2.000000        0.25300831        0.01163580        0.00746914        0.01649489
      96         -0.241948        2.000000        0.21981711        0.01571322        0.00694680        0.01803816
      97         -0.240843        2.000000        0.21285425        0.01385491        0.00781465        0.01572068
      98         -0.240376        2.000000        0.26516696        0.01446514        0.01132483        0.01032617
      99         -0.239508        2.000000        0.23608541        0.01441953        0.00896078        0.01304732
     100         -0.238511        2.000000        0.23063327        0.01120008        0.00944118        0.02379186
     101         -0.237668        2.000000        0.17238865        0.01588114        0.00501113        0.01703147
     102         -0.236684        2.000000        0.23024071        0.01518217        0.00940955        0.01221486
     103         -0.236015        2.000000        0.26070924        0.01039618        0.01042973        0.01220604
     104         -0.234664        2.000000        0.20064588        0.01358183        0.00682036        0.01282803
     105         -0.234451        2.000000        0.23662783        0.00839216        0.00831256        0.01809001
     106         -0.233583        2.000000        0.19560915        0.01854825        0.00726999        0.01228005
     107         -0.232833        2.000000        0.27091810        0.01104499        0.00699103        0.01165416
     108         -0.231848        2.000000        0.25298838        0.01407393        0.00706899        0.01123805
     109         -0.231559        2.000000        0.24214104        0.00897005        0.00659228        0.01567406
     110         -0.230664        2.000000        0.23137837        0.01350418        0.00695770        0.01756756
     111         -0.229517        2.000000        0.22388506        0.01159540        0.00782561        0.01582865
     112         -0.229156        2.000000        0.21452486        0.01602833        0.00657216        0.01405980
     113         -0.227926        2.000000        0.26168202        0.01176808        0.00533289        0.01201521
     114         -0.226912        2.000000        0.20261104        0.01642373        0.00713624        0.01367404
     115         -0.226076        2.000000        0.22528872        0.01884605        0.00722704        0.01001731
     116         -0.225485        2.000000        0.22861172        0.01380687        0.00636710        0.01436544
     117         -0.224556        2.000000        0.19971631        0.01466147        0.00902635        0.01531216
     118         -0.224305        2.000000        0.13475215        0.01875152        0.00668293        0.02026954
     119         -0.222526        2.000000        0.18879463        0.01885519        0.00856140        0.01710297
     120         -0.221728        2.000000        0.17272915        0.01640341        0.00599195        0.01447898
     121         -0.220881        2.000000        0.17557495        0.01709122        0.00580867        0.01483902
     122         -0.219580        2.000000        0.20926209        0.01439427        0.00478179        0.01310314
     123         -0.219350        2.000000        0.18237146        0.01661996        0.00574479        0.01465945
     124         -0.218242        2.000000        0.19324896        0.01747553        0.00647640        0.01391981
     125         -0.217622        2.000000        0.25561012        0.01088940        0.00638968        0.01529450
     126         -0.215456        2.000000        0.22078127        0.01539830        0.00638158        0.01124027
     127         -0.212757        2.000000        0.21511711        0.00997325        0.00769157        0.02067763
     128         -0.211625        2.000000        0.27053211        0.01319667        0.00847493        0.01160150
     129         -0.209621        2.000000        0.20706331        0.01254901        0.00687473        0.01747979
     130         -0.208333        2.000000        0.28714642        0.01038026        0.00801506        0.01353150
     131         -0.205517        2.000000        0.19049222        0.02004199        0.00793898        0.01221997
     132         -0.204688        2.000000        0.25364873        0.01377597        0.00969216        0.01072796
     133         -0.202773        2.000000        0.23420705        0.01858572        0.01129133        0.01019755
     134         -0.199848        2.000000        0.16090926        0.02177043        0.00765279        0.01906938
     135         -0.198990        2.000000        0.19819050        0.01216603        0.01267310        0.02010556
     136         -0.196999        2.000000        0.21351878        0.01490205        0.01211361        0.01705461
     137         -0.195904        2.000000        0.21409561        0.01438336        0.01334997        0.01711333
     138         -0.195441        2.000000        0.15251838        0.02805164        0.00935617        0.01499642
     139         -0.189656        2.000000        0.01143635        0.02484128        0.00132700        0.01770641
     140         -0.187922        2.000000        0.02291484        0.00853947        0.00179871        0.03345645
     141         -0.185334        2.000000        0.00867970        0.03299075        0.00122101        0.01077246
     142         -0.171927        2.000000        0.00189550        0.00403578        0.00073799        0.03550341
     143         -0.167935        2.000000        0.00296029        0.02644242        0.00111480        0.01526839
     144         -0.165312        2.000000        0.00442316        0.02099487        0.00155269        0.02247929
     145         -0.164444        2.000000        0.00230980        0.03384911        0.00078529        0.00989458
     146         -0.164144        2.000000        0.00641280        0.00855966        0.00191775        0.04125003
     147         -0.164032        2.000000        0.00520817        0.02703072        0.00125622        0.01594192
     148         -0.160021        2.000000        0.00862911        0.03790315        0.00349236        0.01343090
     149         -0.159196        2.000000        0.00201696        0.01300390        0.00086205        0.03098626
     150         -0.156947        2.000000        0.01293289        0.03807420        0.00464015        0.01331439
     151         -0.141706        2.000000        0.00231664        0.01031574        0.00160729        0.04053081
     152         -0.137741        2.000000        0.00465930        0.03053990        0.00240538        0.01894000
     153         -0.136428        2.000000        0.00484348        0.01849431        0.00227621        0.03041261
     154         -0.135140        2.000000        0.00121232        0.00171050        0.00050933        0.03802784
     155         -0.133558        2.000000        0.00489476        0.03232546        0.00210743        0.01718220
     156         -0.131605        2.000000        0.00184502        0.03905705        0.00101328        0.00151242
     157         -0.130362        2.000000        0.00298348        0.02018330        0.00217339        0.02940422
     158         -0.128204        2.000000        0.00474116        0.03783581        0.00203703        0.01410980
     159         -0.098939        2.000000        0.00294231        0.00128950        0.00126545        0.04718798
     160         -0.096079        2.000000        0.00461123        0.04568776        0.00097381        0.00143628
     161         -0.022843        0.000000        0.02321838        0.00237814        0.02464123        0.00222648
     162         -0.017868        0.000000        0.01764358        0.00280560        0.00617964        0.00238078
     163         -0.014359        0.000000        0.00527342        0.01113863        0.01897203        0.01069084
     164         -0.012868        0.000000        0.00546126        0.01331211        0.01781331        0.01063168
     165         -0.009718        0.000000        0.00473025        0.00981139        0.01721299        0.01536177
     166         -0.002499        0.000000        0.01127906        0.02212471        0.01697299        0.01300581
     167         -0.001227        0.000000        0.01196960        0.01955896        0.01585878        0.01819334
     168          0.000687        0.000000        0.01311580        0.02139741        0.01546199        0.01490405
     169          0.002194        0.000000        0.01498389        0.01283888        0.01779687        0.02519874
     170          0.002662        0.000000        0.01461550        0.01876214        0.01494004        0.02422926
     171          0.005049        0.000000        0.01353607        0.01524003        0.01625660        0.02250422
     172          0.006037        0.000000        0.01379384        0.01461422        0.02336183        0.02408837
     173          0.007928        0.000000        0.01401073        0.02381141        0.01766852        0.01519591
     174          0.009748        0.000000        0.01310288        0.02551595        0.01780269        0.01229645
     175          0.016706        0.000000        0.01063602        0.01961188        0.02186568        0.02555562
     176          0.022165        0.000000        0.01030906        0.02734463        0.01969199        0.02993790
     177          0.022845        0.000000        0.01023640        0.04004681        0.02256050        0.00920333
     178          0.026147        0.000000        0.00944133        0.01983834        0.02091513        0.02813703
     179          0.028043        0.000000        0.01187157        0.02322326        0.02332557        0.03456612
     180          0.031921        0.000000        0.01786437        0.03293055        0.03120541        0.01736128
     181          0.048858        0.000000        0.05915349        0.05495462        0.05455115        0.12000670
     182          0.048919        0.000000        0.04809084        0.09698863        0.05735994        0.06540560
     183          0.053816        0.000000        0.03727830        0.10001640        0.03938470        0.02807378
     184          0.056489        0.000000        0.02038174        0.03457852        0.01719057        0.05139273
     185          0.057486        0.000000        0.06308793        0.07529109        0.06890624        0.12067837
     186          0.062704        0.000000        0.07766365        0.07605790        0.06869483        0.09074869
     187          0.066821        0.000000        0.07941895        0.10858823        0.07181011        0.05203163
     188          0.068825        0.000000        0.07888690        0.09784422        0.06224174        0.07979641
     189          0.071828        0.000000        0.06012844        0.06915691        0.05267660        0.09091567
     190          0.074231        0.000000        0.06497595        0.06892461        0.06373562        0.10998636
     191          0.075467        0.000000        0.07294040        0.07580411        0.05068911        0.08265049
     192          0.076652        0.000000        0.05489583        0.07280080        0.05972304        0.08831869
     193          0.081526        0.000000        0.06245628        0.12951673        0.05269021        0.06116118
     194          0.082123        0.000000        0.07349478        0.08296244        0.05871037        0.08001819
     195          0.082540        0.000000        0.05107771        0.07719764        0.06842894        0.08443146
     196          0.084309        0.000000        0.06085529        0.07045497        0.06838616        0.08834251
     197          0.085813        0.000000        0.05023487        0.12882564        0.07960717        0.05363495
     198          0.088048        0.000000        0.03880775        0.08354845        0.05708389        0.06291373
     199          0.090400        0.000000        0.05831553        0.06744813        0.04299985        0.05308948
     200          0.092095        0.000000        0.04060943        0.07693326        0.05212481        0.07786006
     201          0.093146        0.000000        0.09374839        0.07492306        0.06116374        0.04565211
     202          0.096179        0.000000        0.04603586        0.06244030        0.03159760        0.05440630
     203          0.096857        0.000000        0.07893500        0.05961093        0.04272704        0.05954216
     204          0.098884        0.000000        0.08528893        0.05825134        0.04715638        0.05631390
     205          0.100225        0.000000        0.07967496        0.05593621        0.05235663        0.07484202
     206          0.100981        0.000000        0.09933834        0.06301422        0.05232989        0.07456038
     207          0.101752        0.000000        0.05144379        0.07501223        0.04614931        0.07242182
     208          0.103097        0.000000        0.07040929        0.05815322        0.05249695        0.07558028
     209          0.103435        0.000000        0.09818234        0.05450743        0.05666487        0.06131340
     210          0.104779        0.000000        0.05770632        0.06634153        0.04949171        0.09004099
