# Projected DOS for atomic kind Ge at iteration step i = 0, E(Fermi) =    -0.093869 a.u.
#     MO Eigenvalue [a.u.]      Occupation                 s                py                pz                px               d-2               d-1                d0               d+1               d+2
       1         -0.557902        2.000000        0.75070653        0.00480399        0.01984954        0.00384292        0.00058762        0.00046488        0.00752415        0.00055731        0.00083265
       2         -0.544786        2.000000        0.01356004        0.00012235        0.00323615        0.00019397        0.00002937        0.00001317        0.00069490        0.00004418        0.00002910
       3         -0.537093        2.000000        0.64926587        0.03840149        0.01211526        0.07410849        0.00700141        0.00215933        0.00276599        0.00427454        0.00392262
       4         -0.534652        2.000000        0.65545521        0.08054999        0.01378489        0.03331663        0.00328491        0.00405462        0.00254834        0.00188169        0.00833713
       5         -0.530474        2.000000        0.65081508        0.03354736        0.00902618        0.08132178        0.00826103        0.00186381        0.00313510        0.00469451        0.00364938
       6         -0.528966        2.000000        0.58414774        0.03958364        0.00790062        0.06225874        0.00626004        0.00213550        0.00239054        0.00341782        0.00394224
       7         -0.526997        2.000000        0.52526147        0.08377647        0.00695628        0.00879486        0.00151404        0.00425418        0.00262350        0.00072873        0.00861260
       8         -0.525824        2.000000        0.19038681        0.02706947        0.00411541        0.00549241        0.00067027        0.00155436        0.00117162        0.00050435        0.00325056
       9         -0.521735        2.000000        0.51097376        0.03004448        0.00571119        0.06549784        0.00627774        0.00159299        0.00218378        0.00371052        0.00306383
      10         -0.520115        2.000000        0.08645195        0.00480160        0.00282686        0.01154905        0.00120433        0.00028403        0.00067990        0.00055638        0.00044481
      11         -0.519254        2.000000        0.03031042        0.00190399        0.00202753        0.00311891        0.00041835        0.00014383        0.00036014        0.00027677        0.00028118
      12         -0.518298        2.000000        0.06837194        0.00433060        0.00231504        0.00764261        0.00084492        0.00030482        0.00060470        0.00055303        0.00056126
      13         -0.514106        2.000000        0.00932642        0.00051290        0.00147065        0.00083176        0.00011897        0.00009066        0.00022219        0.00006888        0.00011593
      14         -0.511573        2.000000        0.00473999        0.00068517        0.00086237        0.00020134        0.00003243        0.00006032        0.00015382        0.00003094        0.00010940
      15         -0.490978        2.000000        0.54616895        0.13550935        0.00230560        0.07886172        0.01246726        0.00863665        0.00080913        0.00585807        0.01630999
      16         -0.487780        2.000000        0.54157288        0.06006573        0.00229965        0.15271953        0.01964470        0.00549925        0.00072183        0.00895759        0.01223811
      17         -0.484250        2.000000        0.54404613        0.05958334        0.00176266        0.14116102        0.02120851        0.00425823        0.00041216        0.01138630        0.01341906
      18         -0.483208        2.000000        0.53524560        0.09477965        0.00270502        0.11316762        0.01656990        0.00673797        0.00059175        0.00830723        0.01232494
      19         -0.481417        2.000000        0.45663694        0.11038814        0.00085731        0.07064622        0.01167149        0.00673934        0.00047610        0.00439522        0.01418450
      20         -0.480831        2.000000        0.52584705        0.12009517        0.00115943        0.06199665        0.01069989        0.00941828        0.00048053        0.00398978        0.02533784
      21         -0.479149        2.000000        0.15149148        0.03461154        0.00103124        0.02400744        0.00376191        0.00186952        0.00016174        0.00227208        0.00492663
      22         -0.478282        2.000000        0.53547896        0.10552137        0.00252882        0.07996085        0.01670295        0.00725931        0.00066784        0.00546605        0.02116641
      23         -0.476844        2.000000        0.32285586        0.07646862        0.00116071        0.05182267        0.00768587        0.00426579        0.00029186        0.00299394        0.01265150
      24         -0.475690        2.000000        0.21718209        0.04358152        0.00088517        0.04268341        0.00607041        0.00255708        0.00021596        0.00263131        0.00698643
      25         -0.472955        2.000000        0.01645620        0.00308549        0.00039928        0.00315273        0.00050946        0.00025662        0.00005246        0.00019997        0.00056434
      26         -0.472488        2.000000        0.00868508        0.00159817        0.00024175        0.00139252        0.00031556        0.00010971        0.00003251        0.00014183        0.00031286
      27         -0.470764        2.000000        0.00653009        0.00146673        0.00032561        0.00133828        0.00017878        0.00010977        0.00003381        0.00006800        0.00024119
      28         -0.469375        2.000000        0.00654963        0.00164994        0.00040146        0.00115022        0.00022049        0.00009309        0.00005062        0.00010222        0.00022586
      29         -0.468630        2.000000        0.21852447        0.02433347        0.00119795        0.05320770        0.01028681        0.00147688        0.00026115        0.00357376        0.00464053
      30         -0.467820        2.000000        0.07425269        0.00826401        0.00086058        0.01828356        0.00314505        0.00062885        0.00013359        0.00138251        0.00158082
      31         -0.467660        2.000000        0.26530779        0.02894982        0.00147920        0.06376268        0.01178591        0.00200754        0.00030225        0.00448416        0.00596025
      32         -0.463850        2.000000        0.00195787        0.00055449        0.00047615        0.00064381        0.00006800        0.00004316        0.00004244        0.00004926        0.00005181
      33         -0.422990        2.000000        0.37528780        0.08320046        0.04154215        0.19591116        0.01014980        0.00584452        0.00760589        0.01719750        0.00464569
      34         -0.420094        2.000000        0.36844714        0.08170033        0.03995618        0.19584904        0.00922026        0.00640050        0.00812869        0.01637677        0.00463000
      35         -0.417788        2.000000        0.33507235        0.20856505        0.04437734        0.04148452        0.00301877        0.01675358        0.00646900        0.00358931        0.01087429
      36         -0.414307        2.000000        0.32831638        0.07662864        0.06318311        0.09258947        0.01351009        0.01025394        0.00676898        0.01002420        0.00785726
      37         -0.411364        2.000000        0.08340584        0.02614918        0.01225241        0.02389113        0.00235819        0.00256386        0.00221058        0.00236227        0.00348390
      38         -0.410258        2.000000        0.38030160        0.10981036        0.05141935        0.11167381        0.01376460        0.01094278        0.00864760        0.01107100        0.01368338
      39         -0.409887        2.000000        0.09943167        0.02518839        0.01703944        0.02889103        0.00376587        0.00273637        0.00226530        0.00353934        0.00313954
      40         -0.409156        2.000000        0.06501685        0.01555970        0.01164733        0.02160639        0.00200825        0.00229370        0.00115169        0.00216656        0.00164181
      41         -0.407731        2.000000        0.25263202        0.08575638        0.04204125        0.05406493        0.00676438        0.00946992        0.00622841        0.00798486        0.00932611
      42         -0.406309        2.000000        0.36391249        0.12954568        0.04602835        0.09589051        0.01094080        0.01153015        0.01135527        0.00863617        0.01707861
      43         -0.403681        2.000000        0.13089053        0.03931483        0.01649538        0.03722896        0.00472351        0.00328715        0.00342970        0.00379168        0.00456973
      44         -0.402559        2.000000        0.35423023        0.09413013        0.03876098        0.11742495        0.01555773        0.00743150        0.01128760        0.01012154        0.01070441
      45         -0.401311        2.000000        0.32167857        0.08664270        0.04533530        0.09768045        0.01135286        0.00826403        0.00961336        0.00953032        0.01317107
      46         -0.400294        2.000000        0.02780394        0.00641450        0.00396243        0.01051539        0.00112108        0.00081011        0.00079687        0.00080892        0.00094866
      47         -0.399780        2.000000        0.01797929        0.00612006        0.00287999        0.00525374        0.00062505        0.00056166        0.00036735        0.00039906        0.00066764
      48         -0.398394        2.000000        0.01167019        0.00398033        0.00152556        0.00351457        0.00038399        0.00035910        0.00029445        0.00033062        0.00039963
      49         -0.397128        2.000000        0.05265605        0.01634568        0.00738033        0.01583591        0.00175915        0.00132423        0.00141875        0.00136144        0.00227106
      50         -0.396323        2.000000        0.00788666        0.00195335        0.00289062        0.00269475        0.00033355        0.00019548        0.00030584        0.00022024        0.00020893
      51         -0.385975        2.000000        0.19824236        0.02060584        0.21035994        0.03052977        0.00472881        0.00513189        0.00897398        0.00722697        0.00306226
      52         -0.380330        2.000000        0.15163942        0.02934910        0.17391550        0.01003238        0.00088592        0.00700055        0.00934696        0.00129059        0.00529755
      53         -0.378937        2.000000        0.17119202        0.02504522        0.21791242        0.01711547        0.00328694        0.00432259        0.00976408        0.00435879        0.00319545
      54         -0.376591        2.000000        0.17565508        0.01890129        0.17316393        0.03151291        0.00523154        0.00354271        0.01141056        0.00652161        0.00308245
      55         -0.374667        2.000000        0.17600642        0.01521942        0.16650167        0.03529088        0.00538194        0.00392954        0.01071368        0.00699448        0.00233813
      56         -0.372251        2.000000        0.11307317        0.01317638        0.10789041        0.02134578        0.00382705        0.00195860        0.00811532        0.00384443        0.00194183
      57         -0.371697        2.000000        0.18258231        0.03504029        0.15926114        0.01933933        0.00175221        0.00656763        0.01136138        0.00307206        0.00547146
      58         -0.366014        2.000000        0.08687353        0.01610727        0.07860274        0.01169023        0.00149403        0.00267336        0.00473884        0.00145651        0.00239586
      59         -0.363994        2.000000        0.12001504        0.01724242        0.09935516        0.02067867        0.00320830        0.00282460        0.00770319        0.00381303        0.00243420
      60         -0.363762        2.000000        0.07182356        0.01116796        0.05447514        0.01237778        0.00182874        0.00207221        0.00372717        0.00160489        0.00175354
      61         -0.361535        2.000000        0.11608691        0.01413973        0.10455580        0.01920569        0.00300141        0.00272438        0.00677969        0.00308013        0.00221293
      62         -0.360451        2.000000        0.12481069        0.01280166        0.10765544        0.02516215        0.00394795        0.00217208        0.00734161        0.00407328        0.00204253
      63         -0.358359        2.000000        0.08137330        0.02173539        0.05499282        0.00494563        0.00070308        0.00291722        0.00500911        0.00130930        0.00330137
      64         -0.354099        2.000000        0.08401686        0.00402478        0.13934462        0.00646741        0.00085207        0.00089793        0.00480394        0.00138680        0.00041681
      65         -0.280999        2.000000        0.00083628        0.00132411        0.00379058        0.00177057        0.00009867        0.00011519        0.00038919        0.00026288        0.00010023
      66         -0.278908        2.000000        0.00220397        0.00758126        0.01814080        0.01014092        0.00020914        0.00036859        0.00109540        0.00030340        0.00045543
      67         -0.274945        2.000000        0.00276447        0.00719290        0.02545729        0.00943309        0.00043112        0.00069473        0.00228018        0.00031815        0.00061613
      68         -0.272679        2.000000        0.00675763        0.02179951        0.08173531        0.04383886        0.00173268        0.00075828        0.00434015        0.00074337        0.00231726
      69         -0.269822        2.000000        0.00772492        0.07007476        0.13685985        0.05625362        0.00299427        0.00078658        0.00522993        0.00056093        0.00116768
      70         -0.268877        2.000000        0.00607088        0.05311739        0.08460828        0.04031474        0.00153844        0.00079599        0.00302156        0.00042480        0.00201757
      71         -0.267051        2.000000        0.00548975        0.02743669        0.09412207        0.04938010        0.00081337        0.00048669        0.00331015        0.00054691        0.00162617
      72         -0.265116        2.000000        0.00737897        0.06951439        0.22560004        0.12867443        0.00113105        0.00110963        0.00757889        0.00118660        0.00254304
      73         -0.263641        2.000000        0.00462693        0.04566952        0.18671424        0.08159025        0.00173743        0.00088709        0.00739633        0.00119933        0.00060455
      74         -0.262931        2.000000        0.00470354        0.07547201        0.12924881        0.02912706        0.00216214        0.00084185        0.00484003        0.00059450        0.00069360
      75         -0.261859        2.000000        0.00291357        0.04196658        0.13640801        0.05781183        0.00147667        0.00079119        0.00514168        0.00117031        0.00080716
      76         -0.260837        2.000000        0.00434737        0.04284086        0.07633675        0.02200406        0.00081431        0.00068970        0.00256422        0.00021959        0.00180135
      77         -0.258396        2.000000        0.00334378        0.02115300        0.06879235        0.02205024        0.00093147        0.00037539        0.00393765        0.00050094        0.00115770
      78         -0.256159        2.000000        0.00354901        0.03334861        0.10130773        0.01950720        0.00147738        0.00095362        0.00785858        0.00069256        0.00150182
      79         -0.255118        2.000000        0.00656879        0.04704004        0.13241785        0.04154510        0.00143173        0.00067757        0.00668040        0.00087951        0.00315023
      80         -0.254463        2.000000        0.00530716        0.04409758        0.12573570        0.02636168        0.00210165        0.00092283        0.00869911        0.00086176        0.00221842
      81         -0.253629        2.000000        0.00941950        0.04279572        0.14836213        0.05812773        0.00316430        0.00158336        0.01121060        0.00133129        0.00268804
      82         -0.251748        2.000000        0.00355718        0.02051178        0.08794802        0.02507259        0.00123500        0.00109142        0.00611990        0.00066217        0.00182317
      83         -0.251401        2.000000        0.00643251        0.03359298        0.08369295        0.02454168        0.00183317        0.00045748        0.00478411        0.00042200        0.00227569
      84         -0.250569        2.000000        0.01202524        0.06034350        0.17120365        0.08683489        0.00578954        0.00322529        0.00908845        0.00146802        0.00321759
      85         -0.250231        2.000000        0.00886528        0.08194443        0.21182305        0.05863945        0.00343511        0.00087657        0.01020875        0.00105580        0.00578843
      86         -0.249321        2.000000        0.00557272        0.02013850        0.07688311        0.03156924        0.00131343        0.00129808        0.00655715        0.00035598        0.00203117
      87         -0.248884        2.000000        0.00376357        0.02257178        0.11603393        0.03449445        0.00195954        0.00125661        0.00703404        0.00126237        0.00120424
      88         -0.247974        2.000000        0.01573973        0.12903010        0.27431279        0.06341375        0.00604004        0.00104850        0.01511188        0.00187005        0.00642165
      89         -0.246832        2.000000        0.00586668        0.03141920        0.09259981        0.04294785        0.00281710        0.00059839        0.00538935        0.00101711        0.00182017
      90         -0.246522        2.000000        0.00804773        0.05421325        0.21174731        0.08324474        0.00432689        0.00172570        0.00845611        0.00178247        0.00339287
      91         -0.245907        2.000000        0.00755373        0.03246225        0.11644100        0.03377726        0.00234605        0.00151209        0.01639032        0.00179048        0.00152529
      92         -0.244908        2.000000        0.00686520        0.03221884        0.11562677        0.02795819        0.00195432        0.00183626        0.01406723        0.00139036        0.00122001
      93         -0.244614        2.000000        0.01584888        0.06802114        0.25242443        0.10835686        0.00736600        0.00229810        0.01084325        0.00195940        0.00623630
      94         -0.243393        2.000000        0.00529901        0.01978474        0.07722597        0.03059343        0.00201553        0.00086043        0.00838270        0.00100984        0.00108414
      95         -0.242934        2.000000        0.00640520        0.03665143        0.09081613        0.01506022        0.00132720        0.00147267        0.00993677        0.00132979        0.00236297
      96         -0.242203        2.000000        0.00590482        0.04749285        0.18146257        0.05582784        0.00181822        0.00256586        0.01367871        0.00181701        0.00433635
      97         -0.241540        2.000000        0.00529421        0.04127723        0.14957403        0.02848623        0.00214387        0.00177665        0.01117601        0.00114271        0.00311883
      98         -0.240749        2.000000        0.00759523        0.04178956        0.15245139        0.03527723        0.00227989        0.00134956        0.01747915        0.00141715        0.00205228
      99         -0.240137        2.000000        0.00837250        0.05300968        0.17607342        0.06566220        0.00516777        0.00109558        0.01330185        0.00209724        0.00144843
     100         -0.238476        2.000000        0.00530497        0.07735501        0.21430313        0.06748820        0.00229017        0.00311743        0.02036995        0.00377894        0.00315351
     101         -0.238226        2.000000        0.01362740        0.04915204        0.12337666        0.07605377        0.00428523        0.00162518        0.01212042        0.00176154        0.00387662
     102         -0.237512        2.000000        0.01229142        0.08253511        0.18506540        0.06904241        0.00355382        0.00223415        0.01742843        0.00291387        0.00520518
     103         -0.236040        2.000000        0.01397651        0.07546060        0.20948512        0.11155946        0.00591187        0.00418664        0.02310366        0.00236439        0.00369153
     104         -0.235495        2.000000        0.00625940        0.06345959        0.14830461        0.07838670        0.00118373        0.00277865        0.02151809        0.00217213        0.00342257
     105         -0.234495        2.000000        0.00716052        0.03100449        0.09561869        0.04823546        0.00302454        0.00159952        0.00906951        0.00133685        0.00177026
     106         -0.233568        2.000000        0.00947611        0.08604193        0.15861122        0.09827176        0.00452931        0.00326906        0.01933336        0.00272956        0.00268770
     107         -0.232835        2.000000        0.00638874        0.04227494        0.12061203        0.05807893        0.00420082        0.00159592        0.01137789        0.00186327        0.00231928
     108         -0.231579        2.000000        0.00695402        0.03860495        0.16710010        0.07728482        0.00154846        0.00265778        0.01784333        0.00232020        0.00412392
     109         -0.230971        2.000000        0.01504997        0.06798607        0.16437041        0.08067429        0.00916789        0.00212635        0.01869579        0.00194467        0.00440166
     110         -0.230574        2.000000        0.01239472        0.04213472        0.13297717        0.04912225        0.00363092        0.00253436        0.01949735        0.00283203        0.00313278
     111         -0.229195        2.000000        0.00972151        0.05090364        0.17645071        0.08718400        0.00413015        0.00410153        0.02058695        0.00289406        0.00292686
     112         -0.228270        2.000000        0.02012832        0.10184119        0.25021989        0.07988808        0.00791363        0.00275666        0.02870880        0.00425140        0.00609128
     113         -0.226944        2.000000        0.02859324        0.14183335        0.15345774        0.12581192        0.00753651        0.00208063        0.01375994        0.00380003        0.00979937
     114         -0.226146        2.000000        0.00661173        0.07209049        0.15426460        0.06986424        0.00324641        0.00278570        0.02180454        0.00354551        0.00262370
     115         -0.225967        2.000000        0.02762874        0.11561141        0.13873734        0.09746816        0.00766992        0.00298552        0.01422468        0.00156462        0.00932636
     116         -0.224237        2.000000        0.02107711        0.09728484        0.18867477        0.08616039        0.00720103        0.00265421        0.01419568        0.00358939        0.00621999
     117         -0.223831        2.000000        0.02419157        0.14768527        0.18033990        0.08892434        0.00411221        0.00153234        0.02557251        0.00260336        0.01209753
     118         -0.223216        2.000000        0.02118892        0.11296281        0.18394034        0.10137369        0.00896204        0.00273794        0.01854617        0.00224113        0.00693119
     119         -0.222160        2.000000        0.02339969        0.12503108        0.14532643        0.08399399        0.00846621        0.00265436        0.01292122        0.00145945        0.00841446
     120         -0.221434        2.000000        0.01522658        0.06600368        0.22354561        0.09551129        0.00605841        0.00424950        0.01871696        0.00326685        0.00769407
     121         -0.221163        2.000000        0.02366997        0.10700681        0.17207435        0.08896960        0.00688851        0.00294175        0.01861157        0.00256023        0.01035194
     122         -0.219799        2.000000        0.01761276        0.10068117        0.21635878        0.12960076        0.00623235        0.00326485        0.02518667        0.00561811        0.00593469
     123         -0.219407        2.000000        0.01052210        0.07690991        0.15855605        0.05201171        0.00571427        0.00221561        0.02019829        0.00293770        0.00406052
     124         -0.218050        2.000000        0.02080469        0.15710938        0.23100236        0.15699970        0.01260128        0.00606096        0.02107064        0.00522848        0.00608513
     125         -0.215861        2.000000        0.02657550        0.14260675        0.18967087        0.15261148        0.01084214        0.00240794        0.01444108        0.00444583        0.01104162
     126         -0.214140        2.000000        0.01009387        0.13617456        0.19865881        0.15769913        0.00764465        0.00601884        0.03282655        0.00495321        0.00781655
     127         -0.212966        2.000000        0.01683099        0.05778227        0.21026851        0.14054449        0.00939101        0.00462415        0.03673640        0.00320943        0.00636248
     128         -0.212246        2.000000        0.01760428        0.11815783        0.26531039        0.10164520        0.00581345        0.00355736        0.04798297        0.00574595        0.00640339
     129         -0.208755        2.000000        0.03041720        0.13582738        0.21714823        0.18296015        0.01464541        0.00471123        0.02356266        0.00708319        0.01296347
     130         -0.207647        2.000000        0.01551077        0.10461951        0.21271363        0.10294468        0.00598893        0.00226715        0.03695632        0.00445092        0.00957110
     131         -0.205684        2.000000        0.01411764        0.18239801        0.20719511        0.10291533        0.01165952        0.00617978        0.02918892        0.00754065        0.00673926
     132         -0.204446        2.000000        0.02177205        0.18179817        0.22140357        0.15824073        0.00632670        0.00646367        0.02871285        0.00716341        0.01892784
     133         -0.201276        2.000000        0.01989430        0.18015961        0.21538959        0.18801213        0.00995827        0.00695280        0.02604898        0.01003389        0.01723280
     134         -0.200832        2.000000        0.01579695        0.13107232        0.22533388        0.19140055        0.00894961        0.00642773        0.03733482        0.00756788        0.01037811
     135         -0.198988        2.000000        0.02454720        0.11802211        0.23387571        0.15592510        0.01234279        0.00602315        0.02984491        0.00634697        0.01390351
     136         -0.197866        2.000000        0.01513156        0.21938575        0.16671530        0.25770224        0.01128846        0.01079354        0.01962048        0.00780274        0.01600167
     137         -0.195330        2.000000        0.02429752        0.31976207        0.19298814        0.10557616        0.02257614        0.00649811        0.01773054        0.00965647        0.00870444
     138         -0.194685        2.000000        0.01847629        0.25378671        0.19827229        0.19436972        0.01817256        0.01492094        0.01752473        0.01000546        0.00898426
     139         -0.192943        2.000000        0.00161173        0.01716289        0.01716561        0.00989216        0.00080400        0.00079009        0.00206145        0.00053885        0.00138824
     140         -0.191342        2.000000        0.00165568        0.01282790        0.01702059        0.00834394        0.00118157        0.00046055        0.00186413        0.00046798        0.00074453
     141         -0.187974        2.000000        0.00028843        0.00276238        0.00408540        0.00169898        0.00016797        0.00011705        0.00052008        0.00007625        0.00020264
     142         -0.176340        2.000000        0.00005041        0.00063905        0.00160777        0.00066350        0.00003846        0.00003500        0.00019181        0.00003112        0.00005645
     143         -0.170494        2.000000        0.00003621        0.00022240        0.00089400        0.00113770        0.00003370        0.00002503        0.00005059        0.00005180        0.00002496
     144         -0.168641        2.000000        0.00009472        0.00126801        0.00098705        0.00151094        0.00005822        0.00006051        0.00012325        0.00003233        0.00005747