# Projected DOS for atomic kind Si at iteration step i = 0, E(Fermi) =    -0.095283 a.u.
#     MO Eigenvalue [a.u.]      Occupation                 s                py                pz                px               d-2               d-1                d0               d+1               d+2
       1         -0.558910        2.000000        0.01135920        0.00030826        0.00161034        0.00017884        0.00002255        0.00003948        0.00012468        0.00002602        0.00001741
       2         -0.542344        2.000000        0.65379358        0.00359079        0.02626372        0.00273185        0.00085688        0.00044812        0.03030433        0.00025773        0.00078886
       3         -0.538016        2.000000        0.00657165        0.00150131        0.00121503        0.00259483        0.00021316        0.00009923        0.00018569        0.00015862        0.00009216
       4         -0.535185        2.000000        0.00559831        0.00238438        0.00113484        0.00093046        0.00006556        0.00015999        0.00017935        0.00006842        0.00018828
       5         -0.530824        2.000000        0.00897687        0.00156824        0.00084407        0.00343632        0.00025898        0.00010391        0.00011505        0.00017997        0.00016145
       6         -0.529301        2.000000        0.01386206        0.00430043        0.00091138        0.00269580        0.00027929        0.00018372        0.00016929        0.00012695        0.00040974
       7         -0.527187        2.000000        0.01157285        0.00481235        0.00078396        0.00176317        0.00017792        0.00022193        0.00011198        0.00009362        0.00038287
       8         -0.522524        2.000000        0.36518120        0.09595190        0.00978021        0.06490739        0.00808014        0.00510650        0.00536096        0.00267995        0.01235420
       9         -0.521857        2.000000        0.15081939        0.04258828        0.00458618        0.02442813        0.00314445        0.00209845        0.00255314        0.00131884        0.00525006
      10         -0.517869        2.000000        0.48913840        0.12560782        0.00923180        0.09441771        0.01197312        0.00571000        0.00835741        0.00478203        0.01505367
      11         -0.516387        2.000000        0.49050722        0.06009084        0.01132097        0.15949135        0.01886841        0.00278068        0.00739635        0.00828964        0.00708973
      12         -0.515486        2.000000        0.49597112        0.08548221        0.01190745        0.13857479        0.01725592        0.00467621        0.00711345        0.00588595        0.01141628
      13         -0.512394        2.000000        0.49815148        0.09851485        0.00950911        0.12884014        0.01564572        0.00446050        0.00669400        0.00635558        0.01340906
      14         -0.509686        2.000000        0.49957631        0.15996472        0.00812458        0.07251817        0.00911763        0.00802892        0.00666263        0.00344214        0.01941917
      15         -0.491612        2.000000        0.00171080        0.00136565        0.00051201        0.00062950        0.00015208        0.00022927        0.00013125        0.00014014        0.00012853
      16         -0.487339        2.000000        0.00297083        0.00083808        0.00051802        0.00228208        0.00021640        0.00016247        0.00016938        0.00025192        0.00027886
      17         -0.486582        2.000000        0.00244786        0.00082307        0.00039932        0.00192764        0.00020474        0.00015661        0.00014118        0.00023237        0.00021359
      18         -0.483412        2.000000        0.00428581        0.00221132        0.00034198        0.00182885        0.00034472        0.00019979        0.00014008        0.00021030        0.00033510
      19         -0.481866        2.000000        0.01152986        0.00576834        0.00049420        0.00440693        0.00098385        0.00039743        0.00023571        0.00038929        0.00087352
      20         -0.480904        2.000000        0.00711302        0.00291039        0.00061400        0.00348434        0.00057514        0.00048407        0.00020346        0.00033807        0.00066701
      21         -0.480135        2.000000        0.00315302        0.00171802        0.00047811        0.00142210        0.00034962        0.00022143        0.00017285        0.00028359        0.00025637
      22         -0.476655        2.000000        0.33172119        0.11927327        0.00158541        0.14971366        0.02984241        0.00768192        0.00077919        0.01076136        0.02680080
      23         -0.475340        2.000000        0.09384560        0.03413457        0.00073514        0.04177660        0.00792101        0.00312622        0.00026748        0.00302672        0.00742375
      24         -0.473357        2.000000        0.35585746        0.15445579        0.00147211        0.13789108        0.02820335        0.01190992        0.00063860        0.01067244        0.02967357
      25         -0.470899        2.000000        0.28592044        0.12756754        0.00162099        0.10052141        0.02020208        0.00951112        0.00060789        0.00654499        0.03126568
      26         -0.470201        2.000000        0.11643891        0.05270317        0.00088586        0.03806073        0.00865383        0.00408776        0.00041539        0.00284662        0.01330671
      27         -0.470017        2.000000        0.39895936        0.19614738        0.00150471        0.10104628        0.02774944        0.01597123        0.00091031        0.00798443        0.05175014
      28         -0.468892        2.000000        0.39747428        0.16077049        0.00123859        0.14115935        0.03979659        0.01302179        0.00138644        0.00942877        0.03959680
      29         -0.467993        2.000000        0.40489608        0.08422911        0.00085800        0.20562361        0.06444765        0.00626341        0.00100558        0.01666983        0.03092992
      30         -0.465562        2.000000        0.40036281        0.13366312        0.00127679        0.17325880        0.04372882        0.00918446        0.00135475        0.01390063        0.03219537
      31         -0.464452        2.000000        0.40680349        0.18426162        0.00126728        0.10175916        0.02020864        0.01523200        0.00092770        0.00694924        0.07169682
      32         -0.463748        2.000000        0.40502324        0.08436887        0.00194615        0.18771756        0.07317074        0.00627417        0.00149719        0.01677812        0.03039770
      33         -0.423888        2.000000        0.00695208        0.00289046        0.00251592        0.00779579        0.00026883        0.00024733        0.00060395        0.00068970        0.00006090
      34         -0.421147        2.000000        0.00766208        0.00358331        0.00317539        0.00850853        0.00018583        0.00049201        0.00085057        0.00069959        0.00012772
      35         -0.418968        2.000000        0.02118536        0.02657265        0.00945526        0.00195418        0.00039601        0.00245896        0.00198441        0.00063013        0.00089878
      36         -0.412710        2.000000        0.02354680        0.01280745        0.00852783        0.01761052        0.00133436        0.00187822        0.00184646        0.00218287        0.00064684
      37         -0.410915        2.000000        0.26802905        0.13300557        0.04603090        0.20392517        0.00984263        0.01740580        0.01306554        0.02000146        0.00698462
      38         -0.410452        2.000000        0.04389164        0.01723787        0.00940722        0.04140119        0.00174726        0.00170828        0.00286722        0.00466270        0.00064994
      39         -0.408533        2.000000        0.15316190        0.14895208        0.02833506        0.05047833        0.00283187        0.01532672        0.00828878        0.00659201        0.00532360
      40         -0.408044        2.000000        0.11247250        0.07443250        0.02620847        0.05477751        0.00389388        0.00954774        0.00684474        0.00756255        0.00571190
      41         -0.407120        2.000000        0.17537689        0.08235071        0.02589395        0.15688769        0.00619187        0.00927205        0.00893639        0.01534901        0.00313477
      42         -0.406687        2.000000        0.02420317        0.01283907        0.00767949        0.01325881        0.00170806        0.00192836        0.00140884        0.00216237        0.00088923
      43         -0.405987        2.000000        0.07447833        0.06436437        0.01263642        0.03158582        0.00287104        0.00710363        0.00401346        0.00352152        0.00336402
      44         -0.403561        2.000000        0.03001672        0.01568084        0.00958350        0.01192166        0.00202999        0.00264514        0.00220440        0.00262792        0.00265746
      45         -0.401387        2.000000        0.27177711        0.10344103        0.05888332        0.14683243        0.03331739        0.01369812        0.01710627        0.02335706        0.01404904
      46         -0.399069        2.000000        0.26983940        0.14882419        0.06299757        0.10143520        0.01524863        0.02276165        0.01642046        0.01533473        0.02885792
      47         -0.398189        2.000000        0.28305094        0.12824226        0.07846542        0.13172685        0.02246972        0.01915723        0.01707814        0.02188012        0.02609276
      48         -0.397604        2.000000        0.29382527        0.14361591        0.06579131        0.12897298        0.02251155        0.02071606        0.02030131        0.01778632        0.02948271
      49         -0.395129        2.000000        0.29437265        0.13034502        0.06512545        0.14710311        0.02876391        0.01542706        0.02173076        0.01991642        0.02509975
      50         -0.392723        2.000000        0.29243074        0.13651184        0.06222677        0.13961199        0.02783071        0.01762840        0.02235292        0.01679019        0.02760910
      51         -0.388260        2.000000        0.05125075        0.01506120        0.08161467        0.02031063        0.00427222        0.00319330        0.00738210        0.00430385        0.00285691
      52         -0.381440        2.000000        0.03915862        0.00758927        0.09185385        0.00613830        0.00170390        0.00470247        0.00672617        0.00400634        0.00204420
      53         -0.379559        2.000000        0.04050139        0.01140202        0.08534489        0.00710628        0.00144580        0.00494889        0.00660234        0.00284951        0.00240048
      54         -0.377361        2.000000        0.02506641        0.00415669        0.07017968        0.00433401        0.00118244        0.00223064        0.00503803        0.00211010        0.00122417
      55         -0.375513        2.000000        0.07585282        0.01112008        0.17067835        0.01239894        0.00425622        0.00373742        0.00937418        0.00942202        0.00258380
      56         -0.373603        2.000000        0.09234942        0.02267622        0.18612960        0.01064598        0.00221148        0.01158690        0.01140337        0.00381647        0.00605663
      57         -0.368905        2.000000        0.06353447        0.00982975        0.12779594        0.01199227        0.00300810        0.00498401        0.00863848        0.00681864        0.00295764
      58         -0.366323        2.000000        0.15110348        0.02842917        0.22398992        0.03413175        0.00950167        0.01059673        0.01550121        0.01343433        0.00583263
      59         -0.363880        2.000000        0.15589014        0.04330248        0.21644682        0.02646755        0.00609794        0.01315027        0.01904192        0.00937594        0.01087639
      60         -0.362389        2.000000        0.12544351        0.01728605        0.18247111        0.03804200        0.00890211        0.00465589        0.01358721        0.01438211        0.00386031
      61         -0.360834        2.000000        0.13849839        0.02146910        0.22063704        0.03334313        0.00809592        0.00829884        0.01500419        0.01126814        0.00553328
      62         -0.359504        2.000000        0.14903178        0.03845609        0.21777595        0.02423382        0.00561417        0.01367910        0.01640167        0.00895290        0.01005507
      63         -0.357104        2.000000        0.14773883        0.03042126        0.22701861        0.03048866        0.00657311        0.01283151        0.01675180        0.00949991        0.00814949
      64         -0.353973        2.000000        0.08342060        0.00555128        0.25361014        0.00734608        0.00110167        0.00173467        0.00732634        0.00166159        0.00102943
      65         -0.278799        2.000000        0.00570080        0.10310218        0.36777438        0.18630110        0.00333350        0.00393244        0.01741345        0.00450311        0.00328627
      66         -0.277596        2.000000        0.00471112        0.09671405        0.37793828        0.18037557        0.00179172        0.00288964        0.01717857        0.00355648        0.00291887
      67         -0.274050        2.000000        0.00552815        0.21734944        0.37001504        0.04767944        0.00329624        0.00391794        0.01809237        0.00181369        0.00174710
      68         -0.270972        2.000000        0.01367610        0.07905612        0.24981969        0.10610886        0.00743765        0.00676305        0.00930130        0.00318464        0.01414836
      69         -0.269979        2.000000        0.00940381        0.05828888        0.20732562        0.06748452        0.00847605        0.00426611        0.01046372        0.00275877        0.00592553
      70         -0.267879        2.000000        0.01074500        0.06674910        0.30804144        0.13230086        0.01160089        0.00273354        0.01493269        0.00449676        0.00739118
      71         -0.266623        2.000000        0.00790502        0.03893359        0.12915186        0.06404188        0.00572136        0.00264468        0.00771934        0.00242140        0.00528408
      72         -0.264330        2.000000        0.01354927        0.09633119        0.26550904        0.12141582        0.00640901        0.00772867        0.01136369        0.00158812        0.01679979
      73         -0.262865        2.000000        0.01260225        0.07862341        0.27057509        0.10540437        0.01112481        0.00346302        0.00966863        0.00373762        0.00910925
      74         -0.261631        2.000000        0.01081526        0.09002767        0.24398062        0.08253818        0.00702796        0.00470472        0.01238141        0.00228449        0.01171216
      75         -0.259875        2.000000        0.00979152        0.05712462        0.22327363        0.12960321        0.00779911        0.00467928        0.01641733        0.00170032        0.01004821
      76         -0.259576        2.000000        0.01492496        0.08464059        0.28898895        0.15979511        0.01556177        0.00681728        0.01613559        0.00265902        0.00936574
      77         -0.258097        2.000000        0.01226936        0.11142547        0.26617640        0.14668887        0.01413801        0.00657286        0.04028142        0.00394608        0.00452814
      78         -0.254796        2.000000        0.00806904        0.05440006        0.15759433        0.03937934        0.00350434        0.00550572        0.02591589        0.00240253        0.00683430
      79         -0.253816        2.000000        0.00869944        0.12528264        0.17786402        0.16258250        0.00887946        0.00956585        0.03689728        0.00199996        0.00968426
      80         -0.253383        2.000000        0.00884594        0.15695217        0.21763853        0.05902106        0.00643172        0.00388621        0.03759617        0.00774041        0.00541122
      81         -0.253074        2.000000        0.00731593        0.09643198        0.20541188        0.07907910        0.00705034        0.00464146        0.03686074        0.00636420        0.00458599
      82         -0.252348        2.000000        0.01118033        0.10190322        0.24879711        0.10998836        0.00788869        0.00699540        0.04568144        0.00639732        0.00810457
      83         -0.251518        2.000000        0.01002587        0.09509520        0.23616966        0.05886512        0.00717411        0.00927357        0.04895408        0.00519237        0.00704235
      84         -0.251214        2.000000        0.01473423        0.12454452        0.16548413        0.09731832        0.01054099        0.00458278        0.02717247        0.00544965        0.00653658
      85         -0.250347        2.000000        0.01156353        0.03642307        0.08953576        0.05345006        0.00708840        0.00203288        0.01577797        0.00082742        0.00474947
      86         -0.249766        2.000000        0.01217673        0.06587549        0.19152574        0.11382600        0.00859867        0.00556961        0.05096534        0.00619119        0.00620188
      87         -0.248700        2.000000        0.01007307        0.05557741        0.17627050        0.07769911        0.00931183        0.00312925        0.04062509        0.00602873        0.00502379
      88         -0.247819        2.000000        0.00788320        0.10813690        0.17088634        0.08671719        0.00801551        0.00373055        0.03202710        0.00831583        0.00546112
      89         -0.247150        2.000000        0.01576270        0.10826508        0.20489596        0.13874069        0.01310079        0.00510621        0.03931517        0.00773772        0.00523711
      90         -0.245897        2.000000        0.01491871        0.07747064        0.20077381        0.09615780        0.01171542        0.00418176        0.04899468        0.00413818        0.00577138
      91         -0.245496        2.000000        0.01514068        0.09766532        0.13887151        0.06217253        0.00770035        0.00527441        0.03256263        0.00295404        0.00946336
      92         -0.244792        2.000000        0.01444266        0.09495236        0.18635243        0.10317021        0.00795356        0.00747990        0.04316807        0.00543348        0.01003282
      93         -0.244175        2.000000        0.02631793        0.22105676        0.21248804        0.05861884        0.00464279        0.00588528        0.04778786        0.00419350        0.03055355
      94         -0.242494        2.000000        0.01587388        0.14955326        0.18411366        0.09160771        0.01179699        0.00672726        0.03229114        0.00612724        0.01216943
      95         -0.242169        2.000000        0.01916946        0.07284500        0.15598049        0.12450086        0.01678518        0.00303716        0.02586851        0.00486571        0.00901800
      96         -0.241806        2.000000        0.01444711        0.10171150        0.14115357        0.12972318        0.01255089        0.00275094        0.02218521        0.00757764        0.01033780
      97         -0.241454        2.000000        0.01377164        0.05104996        0.16105450        0.08625661        0.01274813        0.00374568        0.02562217        0.00330171        0.00670155
      98         -0.240703        2.000000        0.00811753        0.06950534        0.11837222        0.02237506        0.00262363        0.00214791        0.03196673        0.00392056        0.00581469
      99         -0.239651        2.000000        0.01762670        0.17030428        0.16778511        0.18551319        0.01912184        0.00867562        0.03399370        0.00558151        0.01517434
     100         -0.238197        2.000000        0.01752760        0.08121896        0.16248238        0.08575720        0.00998948        0.00536935        0.02979079        0.00280535        0.01526092
     101         -0.237885        2.000000        0.02259782        0.11011582        0.12142985        0.13495421        0.01355634        0.00474279        0.01707463        0.00313219        0.01591993
     102         -0.236935        2.000000        0.02423939        0.14728673        0.24708708        0.08755757        0.01289600        0.00489384        0.06491027        0.00516155        0.02013523
     103         -0.236301        2.000000        0.01073522        0.04783603        0.13453827        0.05314826        0.00646534        0.00303664        0.04057288        0.00281465        0.00757101
     104         -0.235257        2.000000        0.01431797        0.05554029        0.16399448        0.10815057        0.01230567        0.00394201        0.03785013        0.00361655        0.00929577
     105         -0.234176        2.000000        0.01227982        0.07205073        0.14053358        0.11757138        0.01292988        0.00469189        0.03189167        0.00403201        0.01035014
     106         -0.233296        2.000000        0.02285941        0.12169558        0.14291883        0.05858434        0.00783729        0.00313527        0.02715238        0.00255184        0.02262648
     107         -0.232018        2.000000        0.00992067        0.08317976        0.13048984        0.09251901        0.00696173        0.00581134        0.02543221        0.00504789        0.01192215
     108         -0.231475        2.000000        0.00795279        0.05136018        0.15272838        0.05096655        0.00440849        0.00472004        0.04433809        0.00183859        0.00763806
     109         -0.231207        2.000000        0.00842781        0.11436757        0.11830186        0.12585181        0.01336574        0.00628244        0.02397914        0.00547187        0.01180460
     110         -0.230699        2.000000        0.01070428        0.10142803        0.15247162        0.09516914        0.01150515        0.00903010        0.03199223        0.00303420        0.00935652
     111         -0.229506        2.000000        0.01012639        0.05860038        0.16333844        0.07240384        0.00874869        0.00744000        0.04197128        0.00357520        0.00796655
     112         -0.228964        2.000000        0.01093466        0.09559314        0.11124929        0.06540467        0.01105720        0.00451684        0.01696534        0.00405919        0.01080310
     113         -0.227457        2.000000        0.00607943        0.06611103        0.15151459        0.11089964        0.00881487        0.00662491        0.02526368        0.00693188        0.01102297
     114         -0.226740        2.000000        0.00763735        0.08304517        0.11280784        0.09792475        0.01066114        0.00647355        0.02493565        0.00479897        0.00952741
     115         -0.226077        2.000000        0.00706541        0.05542234        0.10384618        0.06016307        0.00773302        0.00454227        0.02081757        0.00375287        0.00704468
     116         -0.224945        2.000000        0.00756512        0.08338994        0.10050279        0.08321968        0.00852486        0.00495381        0.02992515        0.00517125        0.00820619
     117         -0.224474        2.000000        0.00676962        0.06738795        0.15500519        0.09862815        0.00822603        0.00780409        0.03914711        0.00567655        0.00856291
     118         -0.223367        2.000000        0.00647653        0.07873145        0.08929283        0.04982494        0.00734895        0.00352997        0.02013738        0.00408229        0.00872365
     119         -0.221859        2.000000        0.00521022        0.06450095        0.11379610        0.07062220        0.00954747        0.00635767        0.02409744        0.00461145        0.00607618
     120         -0.221541        2.000000        0.00743015        0.14237896        0.11806629        0.08156155        0.01601178        0.00618891        0.01906662        0.00852314        0.00913153
     121         -0.220215        2.000000        0.01718895        0.13080850        0.19647178        0.13637613        0.01814796        0.00783522        0.04036491        0.00878766        0.01684515
     122         -0.219752        2.000000        0.00492654        0.12715510        0.10231127        0.06546519        0.01275602        0.00514571        0.01389135        0.00652544        0.00905260
     123         -0.219112        2.000000        0.00295116        0.04999786        0.05814003        0.06134725        0.00685501        0.00456858        0.00958718        0.00375796        0.00454776
     124         -0.217814        2.000000        0.00442854        0.07762264        0.09579353        0.05601458        0.00931152        0.00550072        0.01859615        0.00578973        0.00567387
     125         -0.217095        2.000000        0.00494983        0.02215284        0.08283862        0.03397525        0.00459812        0.00318143        0.02159314        0.00131847        0.00454611
     126         -0.214446        2.000000        0.00568508        0.09614458        0.11065173        0.02495250        0.01078549        0.00452500        0.02778971        0.00539990        0.00359597
     127         -0.212588        2.000000        0.00319935        0.01322969        0.06637459        0.02986048        0.00446742        0.00256109        0.01473815        0.00187892        0.00227028
     128         -0.211908        2.000000        0.00347757        0.02918597        0.07232971        0.01561876        0.00248831        0.00233286        0.01658689        0.00133398        0.00574064
     129         -0.209188        2.000000        0.00181128        0.01800255        0.05716917        0.02603347        0.00355402        0.00202998        0.01283720        0.00215639        0.00277975
     130         -0.208233        2.000000        0.00442170        0.01061471        0.09382268        0.03811270        0.00623439        0.00269872        0.02394716        0.00277921        0.00253699
     131         -0.205288        2.000000        0.00113737        0.02453000        0.03610309        0.01018758        0.00185076        0.00144651        0.00772315        0.00179324        0.00165825
     132         -0.204175        2.000000        0.00371751        0.01685914        0.08954640        0.01828422        0.00260413        0.00337403        0.02660639        0.00191975        0.00339874
     133         -0.201681        2.000000        0.00175863        0.00932944        0.05757277        0.00958021        0.00165816        0.00169509        0.01864627        0.00171063        0.00123904
     134         -0.199083        2.000000        0.00077272        0.01286610        0.03312406        0.01092703        0.00186291        0.00131585        0.00639404        0.00128479        0.00078871
     135         -0.198244        2.000000        0.00092958        0.00858516        0.02241412        0.00524410        0.00078702        0.00094868        0.00551219        0.00102395        0.00065620
     136         -0.197362        2.000000        0.00047556        0.01081665        0.02131974        0.02382777        0.00103406        0.00089700        0.00458574        0.00106098        0.00066284
     137         -0.196361        2.000000        0.00098112        0.01802742        0.02515744        0.01528035        0.00111876        0.00116811        0.00468649        0.00116144        0.00162582
     138         -0.194993        2.000000        0.00041542        0.02093132        0.01884885        0.01686464        0.00085010        0.00114041        0.00374384        0.00092714        0.00102645
     139         -0.190467        2.000000        0.00199076        0.54542619        0.02419366        0.30199049        0.00808920        0.01741531        0.00258355        0.01181534        0.00951944
     140         -0.189246        2.000000        0.00161199        0.10270412        0.02678917        0.71566037        0.01151644        0.00470671        0.00523151        0.02549034        0.00515198
     141         -0.186057        2.000000        0.00214504        0.63406608        0.01960743        0.23167598        0.00506577        0.02033013        0.00286835        0.01167006        0.01041533
     142         -0.173582        2.000000        0.00164024        0.07410620        0.01030328        0.76050245        0.07171781        0.00291117        0.00169053        0.02401562        0.00860749
     143         -0.168781        2.000000        0.00123215        0.52937222        0.01317080        0.30148199        0.02894492        0.01397866        0.00151805        0.00960100        0.05335737
     144         -0.166171        2.000000        0.00107237        0.44260657        0.02140912        0.36358215        0.03270488        0.01483594        0.00295269        0.01307582        0.04542810