# Projected DOS for atomic kind Ge at iteration step i = 0, E(Fermi) =    -0.095283 a.u.
#     MO Eigenvalue [a.u.]      Occupation                 s                py                pz                px               d-2               d-1                d0               d+1               d+2
       1         -0.558910        2.000000        0.75095300        0.00605012        0.01999500        0.00505236        0.00073295        0.00049596        0.00724235        0.00063997        0.00099917
       2         -0.542344        2.000000        0.01076091        0.00022808        0.00320458        0.00039042        0.00005482        0.00001667        0.00058044        0.00006565        0.00004255
       3         -0.538016        2.000000        0.65647045        0.03662143        0.01285132        0.07386567        0.00698964        0.00207075        0.00300097        0.00411586        0.00377585
       4         -0.535185        2.000000        0.65405501        0.07782559        0.01379839        0.03604186        0.00365849        0.00379282        0.00237774        0.00214344        0.00780538
       5         -0.530824        2.000000        0.64962946        0.03651978        0.00843023        0.07852829        0.00769740        0.00188474        0.00331837        0.00487192        0.00414640
       6         -0.529301        2.000000        0.64404452        0.06022699        0.00978532        0.05234505        0.00548088        0.00296089        0.00262157        0.00309950        0.00660084
       7         -0.527187        2.000000        0.64881225        0.09296050        0.00866079        0.01992449        0.00280846        0.00522961        0.00329297        0.00119594        0.00952066
       8         -0.522524        2.000000        0.18499662        0.01115774        0.00321497        0.02340611        0.00220696        0.00065253        0.00076644        0.00110028        0.00116023
       9         -0.521857        2.000000        0.45830765        0.02500652        0.00580488        0.05986729        0.00601793        0.00134224        0.00208960        0.00349130        0.00249905
      10         -0.517869        2.000000        0.02080161        0.00183641        0.00187039        0.00148943        0.00022578        0.00017591        0.00035925        0.00014179        0.00030481
      11         -0.516387        2.000000        0.02050187        0.00108439        0.00146919        0.00238769        0.00032954        0.00009658        0.00027922        0.00019326        0.00014094
      12         -0.515486        2.000000        0.01196889        0.00073355        0.00171217        0.00122381        0.00017873        0.00006245        0.00030193        0.00012292        0.00010379
      13         -0.512394        2.000000        0.00744662        0.00042356        0.00156479        0.00064982        0.00009864        0.00007881        0.00020731        0.00005925        0.00009694
      14         -0.509686        2.000000        0.00365504        0.00047671        0.00091871        0.00023278        0.00003948        0.00003929        0.00015049        0.00003989        0.00007291
      15         -0.491612        2.000000        0.54883779        0.13569704        0.00253068        0.07987564        0.01276110        0.00826482        0.00090619        0.00583649        0.01646996
      16         -0.487339        2.000000        0.54267077        0.06492845        0.00237422        0.14876802        0.01748440        0.00534736        0.00070690        0.00944611        0.01239498
      17         -0.486582        2.000000        0.54770330        0.07571725        0.00154110        0.12854132        0.01716152        0.00602576        0.00036403        0.01042630        0.01582033
      18         -0.483412        2.000000        0.54663926        0.09908418        0.00186470        0.10924533        0.01969897        0.00734871        0.00080720        0.00763028        0.01259578
      19         -0.481866        2.000000        0.53071694        0.12032415        0.00149618        0.08805029        0.01366697        0.00717911        0.00052636        0.00556190        0.01677365
      20         -0.480904        2.000000        0.55052258        0.12816980        0.00226622        0.05933990        0.01098233        0.00929269        0.00057543        0.00385691        0.02727672
      21         -0.480135        2.000000        0.54583105        0.08489293        0.00212406        0.11604716        0.02207430        0.00558267        0.00079055        0.00786325        0.01376917
      22         -0.476655        2.000000        0.09282212        0.02568435        0.00066969        0.01036611        0.00174514        0.00131943        0.00013955        0.00097514        0.00435882
      23         -0.475340        2.000000        0.41893641        0.09681150        0.00106628        0.06510620        0.01073873        0.00564433        0.00033153        0.00383583        0.01682382
      24         -0.473357        2.000000        0.05832026        0.01059842        0.00048174        0.01166023        0.00184254        0.00069129        0.00007269        0.00081040        0.00177865
      25         -0.470899        2.000000        0.16005936        0.01735134        0.00131028        0.03791142        0.00679808        0.00124970        0.00022095        0.00255616        0.00394471
      26         -0.470201        2.000000        0.39228999        0.04894506        0.00203835        0.08926115        0.01648187        0.00340115        0.00055958        0.00609873        0.00959797
      27         -0.470017        2.000000        0.00859588        0.00179131        0.00036044        0.00172534        0.00024343        0.00018149        0.00004312        0.00009958        0.00032302
      28         -0.468892        2.000000        0.00626620        0.00107236        0.00042953        0.00135114        0.00020258        0.00014045        0.00004790        0.00014421        0.00017827
      29         -0.467993        2.000000        0.00175813        0.00030602        0.00017881        0.00051182        0.00007606        0.00003247        0.00002215        0.00004990        0.00005769
      30         -0.465562        2.000000        0.00407106        0.00062361        0.00031285        0.00090332        0.00015065        0.00005688        0.00003496        0.00009557        0.00014018
      31         -0.464452        2.000000        0.00621560        0.00096831        0.00041599        0.00153498        0.00023603        0.00006510        0.00004153        0.00013550        0.00014786
      32         -0.463748        2.000000        0.00119609        0.00030512        0.00038932        0.00071034        0.00003712        0.00003015        0.00003769        0.00003323        0.00002685
      33         -0.423888        2.000000        0.37464778        0.07797441        0.03376208        0.21498422        0.01080969        0.00393876        0.00829530        0.01799151        0.00336742
      34         -0.421147        2.000000        0.37933289        0.09217703        0.04035403        0.18211019        0.00983799        0.00636397        0.00961664        0.01564095        0.00602997
      35         -0.418968        2.000000        0.35220043        0.21384026        0.06018147        0.02198687        0.00231956        0.01961965        0.00566373        0.00518488        0.01184433
      36         -0.412710        2.000000        0.36734112        0.09778728        0.06235525        0.09982937        0.01483872        0.01137106        0.00767964        0.01041032        0.00870170
      37         -0.410915        2.000000        0.03407632        0.00891062        0.00555838        0.01104049        0.00094455        0.00114946        0.00085307        0.00117162        0.00110315
      38         -0.410452        2.000000        0.33664317        0.09309641        0.05099139        0.10295147        0.01279768        0.00989027        0.00689993        0.01043835        0.01026757
      39         -0.408533        2.000000        0.19041886        0.05652816        0.02712774        0.04867692        0.00597963        0.00620912        0.00477866        0.00566016        0.00792049
      40         -0.408044        2.000000        0.24877201        0.07031324        0.03657254        0.06575150        0.00755129        0.00790643        0.00630722        0.00743057        0.01142072
      41         -0.407120        2.000000        0.15756066        0.03995671        0.02688330        0.04815586        0.00430563        0.00455874        0.00325137        0.00477706        0.00558109
      42         -0.406687        2.000000        0.36741571        0.08857779        0.04137211        0.13424894        0.01778726        0.00671184        0.01251812        0.01132706        0.00912871
      43         -0.405987        2.000000        0.29241902        0.11243044        0.04226552        0.05902792        0.00658221        0.01004764        0.00855612        0.00645248        0.01396986
      44         -0.403561        2.000000        0.35708907        0.10480723        0.04581367        0.11052924        0.01129967        0.01144658        0.01170806        0.00950539        0.01482305
      45         -0.401387        2.000000        0.04152471        0.01134193        0.00588264        0.01322256        0.00176591        0.00094717        0.00084465        0.00145340        0.00131921
      46         -0.399069        2.000000        0.04112466        0.01372382        0.00532684        0.01200717        0.00125888        0.00134037        0.00104243        0.00103032        0.00167972
      47         -0.398189        2.000000        0.01548979        0.00405482        0.00539059        0.00492403        0.00058702        0.00041823        0.00050067        0.00043938        0.00033467
      48         -0.397604        2.000000        0.01005512        0.00311276        0.00291352        0.00311778        0.00033898        0.00030586        0.00023232        0.00025890        0.00039437
      49         -0.395129        2.000000        0.00633082        0.00166673        0.00379958        0.00174601        0.00018538        0.00018251        0.00030156        0.00018080        0.00021150
      50         -0.392723        2.000000        0.01065010        0.00245249        0.00637684        0.00293837        0.00033757        0.00028883        0.00036879        0.00031750        0.00026374
      51         -0.388260        2.000000        0.18728348        0.01900191        0.21461587        0.02801551        0.00372668        0.00452773        0.00866018        0.00605241        0.00292023
      52         -0.381440        2.000000        0.20028246        0.03133983        0.20532043        0.02327704        0.00439805        0.00646743        0.01065378        0.00539277        0.00450221
      53         -0.379559        2.000000        0.20022260        0.02120507        0.22061345        0.02426494        0.00440006        0.00628863        0.00930407        0.00599078        0.00385952
      54         -0.377361        2.000000        0.23252373        0.03201767        0.20643674        0.03322700        0.00466177        0.00571586        0.01423656        0.00698016        0.00527966
      55         -0.375513        2.000000        0.14630361        0.01268729        0.14944249        0.02841305        0.00434820        0.00212224        0.01026105        0.00605254        0.00207996
      56         -0.373603        2.000000        0.12735631        0.02570063        0.13213366        0.00804412        0.00100305        0.00569483        0.00918992        0.00138263        0.00446470
      57         -0.368905        2.000000        0.16353534        0.01817538        0.18161489        0.03095987        0.00466107        0.00394242        0.01112759        0.00506116        0.00254613
      58         -0.366323        2.000000        0.06969620        0.01317082        0.06105382        0.00889354        0.00119235        0.00235767        0.00373223        0.00114396        0.00201750
      59         -0.363880        2.000000        0.07056641        0.01340630        0.05074034        0.00962163        0.00150824        0.00221562        0.00428529        0.00128302        0.00222476
      60         -0.362389        2.000000        0.11073230        0.01263076        0.08410512        0.02369214        0.00338472        0.00252033        0.00661254        0.00361197        0.00195173
      61         -0.360834        2.000000        0.08618532        0.01364995        0.06155236        0.01372719        0.00219443        0.00224137        0.00526892        0.00283339        0.00212638
      62         -0.359504        2.000000        0.07751682        0.01619111        0.05894653        0.00788991        0.00122926        0.00242415        0.00462945        0.00189820        0.00239829
      63         -0.357104        2.000000        0.07433931        0.01115779        0.05932361        0.01340936        0.00190833        0.00227242        0.00456454        0.00198854        0.00179656
      64         -0.353973        2.000000        0.09018450        0.00418712        0.15709168        0.00595844        0.00099804        0.00061862        0.00583537        0.00129806        0.00048145
      65         -0.278799        2.000000        0.00184941        0.00814927        0.01602814        0.00808711        0.00017092        0.00035261        0.00114890        0.00051699        0.00035902
      66         -0.277596        2.000000        0.00184304        0.00772214        0.01967542        0.01205462        0.00019997        0.00034096        0.00096062        0.00034806        0.00042738
      67         -0.274050        2.000000        0.00180454        0.01911058        0.03300950        0.00880127        0.00046039        0.00073204        0.00147135        0.00026109        0.00043649
      68         -0.270972        2.000000        0.00903288        0.03977541        0.12423388        0.06837575        0.00318453        0.00115796        0.00500740        0.00111916        0.00311684
      69         -0.269979        2.000000        0.00856658        0.12316492        0.16541988        0.05068901        0.00336755        0.00067517        0.00595566        0.00064939        0.00173229
      70         -0.267879        2.000000        0.00463331        0.02639951        0.09927272        0.05527343        0.00095630        0.00044796        0.00311196        0.00068613        0.00121474
      71         -0.266623        2.000000        0.00796116        0.07558021        0.23289944        0.13908747        0.00086303        0.00119074        0.00829604        0.00129849        0.00253351
      72         -0.264330        2.000000        0.00448068        0.06237212        0.10686384        0.02828405        0.00177252        0.00085466        0.00420079        0.00047931        0.00128936
      73         -0.262865        2.000000        0.00499714        0.04870757        0.13776402        0.04069081        0.00201059        0.00074855        0.00630071        0.00077708        0.00144836
      74         -0.261631        2.000000        0.00411392        0.05524079        0.15390890        0.05138470        0.00107271        0.00075777        0.00685178        0.00064184        0.00129127
      75         -0.259875        2.000000        0.00681288        0.05736263        0.14846331        0.06270794        0.00142494        0.00071167        0.00450277        0.00118170        0.00318117
      76         -0.259576        2.000000        0.00425456        0.01734364        0.08619926        0.04550467        0.00104153        0.00067811        0.00282335        0.00074850        0.00111467
      77         -0.258097        2.000000        0.00307348        0.02696242        0.06977176        0.02045656        0.00113418        0.00028768        0.00565099        0.00058830        0.00089043
      78         -0.254796        2.000000        0.00755697        0.07246726        0.23634486        0.05944828        0.00283176        0.00172492        0.01361968        0.00195671        0.00458780
      79         -0.253816        2.000000        0.00686051        0.04885823        0.10903808        0.03242650        0.00256663        0.00054061        0.00331217        0.00054518        0.00381151
      80         -0.253383        2.000000        0.00570857        0.04060611        0.11547973        0.04257840        0.00186177        0.00144097        0.00999630        0.00136794        0.00261755
      81         -0.253074        2.000000        0.00516959        0.05749255        0.14129397        0.03077665        0.00227717        0.00140032        0.01360441        0.00135853        0.00199614
      82         -0.252348        2.000000        0.00355026        0.04229557        0.09204658        0.01345466        0.00130508        0.00033489        0.00889278        0.00066356        0.00125130
      83         -0.251518        2.000000        0.00776015        0.04416135        0.11244648        0.04009339        0.00252490        0.00175498        0.00687066        0.00129466        0.00332969
      84         -0.251214        2.000000        0.00850976        0.05808695        0.15217165        0.06122672        0.00380478        0.00161073        0.00685554        0.00097696        0.00370978
      85         -0.250347        2.000000        0.01429256        0.13990634        0.25444364        0.04955383        0.00591317        0.00149993        0.02341822        0.00333080        0.00461719
      86         -0.249766        2.000000        0.00935904        0.05040659        0.13041576        0.04121618        0.00312291        0.00104812        0.01084299        0.00119808        0.00287173
      87         -0.248700        2.000000        0.01104759        0.06740307        0.14824626        0.07767172        0.00484203        0.00170512        0.01061840        0.00176967        0.00314646
      88         -0.247819        2.000000        0.00711438        0.06094861        0.17564619        0.03472499        0.00451005        0.00199852        0.00957681        0.00101199        0.00234450
      89         -0.247150        2.000000        0.00697783        0.02848630        0.11897031        0.03035627        0.00271702        0.00081265        0.00821426        0.00078204        0.00274160
      90         -0.245897        2.000000        0.00907209        0.03744999        0.14526572        0.03939211        0.00315113        0.00090988        0.01240172        0.00110433        0.00248565
      91         -0.245496        2.000000        0.00902494        0.03758404        0.18838076        0.07514496        0.00486170        0.00160356        0.01988085        0.00204995        0.00213790
      92         -0.244792        2.000000        0.01068964        0.03556702        0.12972227        0.04516909        0.00330661        0.00174209        0.01269330        0.00266235        0.00237716
      93         -0.244175        2.000000        0.00479105        0.02704016        0.07396858        0.02039594        0.00100932        0.00113274        0.01021021        0.00074058        0.00149779
      94         -0.242494        2.000000        0.00941351        0.04752453        0.12130275        0.03721290        0.00180294        0.00204241        0.01126612        0.00189458        0.00341667
      95         -0.242169        2.000000        0.00816014        0.07170495        0.16771758        0.05496692        0.00282026        0.00164680        0.00971880        0.00223907        0.00378344
      96         -0.241806        2.000000        0.00600606        0.05626485        0.15286921        0.06039682        0.00260477        0.00340840        0.01566603        0.00208816        0.00293442
      97         -0.241454        2.000000        0.00927262        0.04231276        0.19530641        0.08104813        0.00393895        0.00168818        0.01491519        0.00328910        0.00354869
      98         -0.240703        2.000000        0.00927294        0.05065242        0.26617145        0.05682866        0.00449926        0.00369614        0.02362187        0.00169764        0.00331402
      99         -0.239651        2.000000        0.00719093        0.03424683        0.08126696        0.02020981        0.00182134        0.00090207        0.00810512        0.00112901        0.00205232
     100         -0.238197        2.000000        0.00814064        0.04716321        0.13990619        0.09621165        0.00332070        0.00210630        0.01928105        0.00180564        0.00369797
     101         -0.237885        2.000000        0.01172875        0.03831946        0.16898493        0.09081772        0.00410914        0.00203680        0.01027747        0.00240013        0.00541117
     102         -0.236935        2.000000        0.00444276        0.01163819        0.06534543        0.02395272        0.00156868        0.00107812        0.00746794        0.00099264        0.00135220
     103         -0.236301        2.000000        0.01363638        0.09002783        0.16113569        0.10765917        0.00414442        0.00288938        0.02095205        0.00394728        0.00433904
     104         -0.235257        2.000000        0.00525789        0.03521146        0.16033700        0.06823813        0.00204601        0.00294363        0.01927624        0.00298016        0.00201834
     105         -0.234176        2.000000        0.01431714        0.05264524        0.14616950        0.10155943        0.00462614        0.00311726        0.01488583        0.00154899        0.00380142
     106         -0.233296        2.000000        0.01128687        0.06019146        0.15317277        0.08625081        0.00381700        0.00188931        0.02098422        0.00261023        0.00320948
     107         -0.232018        2.000000        0.01573114        0.09828727        0.16514439        0.05983005        0.00466925        0.00218587        0.01799028        0.00255703        0.00671850
     108         -0.231475        2.000000        0.00509410        0.04459795        0.20576802        0.05665568        0.00292604        0.00288923        0.02486935        0.00406268        0.00201960
     109         -0.231207        2.000000        0.00803599        0.04188960        0.17079767        0.04832765        0.00355766        0.00239661        0.02197924        0.00233459        0.00299162
     110         -0.230699        2.000000        0.00644764        0.06187843        0.13257385        0.07081118        0.00335012        0.00276734        0.01772915        0.00174137        0.00264927
     111         -0.229506        2.000000        0.01377013        0.08323276        0.13805613        0.08633633        0.00397382        0.00380669        0.01384333        0.00298421        0.00418176
     112         -0.228964        2.000000        0.01536086        0.08465967        0.19384657        0.09290148        0.00851916        0.00166926        0.01783399        0.00387112        0.00398480
     113         -0.227457        2.000000        0.00891192        0.05430179        0.16985183        0.05641073        0.00553781        0.00268424        0.01671875        0.00277822        0.00444153
     114         -0.226740        2.000000        0.02582098        0.11487652        0.14732540        0.10145117        0.00713606        0.00154678        0.01351468        0.00272909        0.00766066
     115         -0.226077        2.000000        0.02752771        0.16041395        0.19736458        0.04462506        0.00328205        0.00395576        0.02164164        0.00277868        0.01214660
     116         -0.224945        2.000000        0.02674515        0.09560059        0.17328536        0.11183525        0.00908956        0.00227390        0.01284725        0.00378800        0.00676240
     117         -0.224474        2.000000        0.01413778        0.05563152        0.13566877        0.09297035        0.00635875        0.00165611        0.01783807        0.00267536        0.00388865
     118         -0.223367        2.000000        0.02646191        0.16555191        0.14564109        0.14146081        0.01281120        0.00419760        0.01346061        0.00226317        0.00882556
     119         -0.221859        2.000000        0.01919705        0.11549427        0.15575012        0.12225944        0.00916557        0.00280060        0.01467693        0.00299193        0.00605048
     120         -0.221541        2.000000        0.01980853        0.12449896        0.13090746        0.06931368        0.00427001        0.00285265        0.01184042        0.00224446        0.01062798
     121         -0.220215        2.000000        0.00564177        0.05254803        0.08313031        0.03143740        0.00239479        0.00165124        0.00930828        0.00097397        0.00349991
     122         -0.219752        2.000000        0.00926711        0.06085907        0.18058192        0.10322914        0.00424026        0.00425624        0.01982618        0.00296594        0.00689846
     123         -0.219112        2.000000        0.02813610        0.13083857        0.21337133        0.14574848        0.01322814        0.00219654        0.02152754        0.00554535        0.00574112
     124         -0.217814        2.000000        0.01717202        0.09812551        0.22738544        0.06919356        0.00475112        0.00320511        0.02056398        0.00443654        0.00755826
     125         -0.217095        2.000000        0.02572057        0.13795888        0.21185768        0.15210781        0.00809778        0.00284128        0.02229769        0.00429338        0.01112405
     126         -0.214446        2.000000        0.01517805        0.07742161        0.16959049        0.12640654        0.00612298        0.00437709        0.02542210        0.00288984        0.00769773
     127         -0.212588        2.000000        0.03118912        0.08915449        0.22443664        0.18699419        0.01630509        0.00467118        0.02632431        0.00407389        0.00977651
     128         -0.211908        2.000000        0.00928429        0.14202753        0.21357044        0.12042986        0.00696226        0.00517597        0.03800045        0.00595860        0.00522532
     129         -0.209188        2.000000        0.02662953        0.13320681        0.21757262        0.18783228        0.01275049        0.00479781        0.02416560        0.00632069        0.01265564
     130         -0.208233        2.000000        0.01532409        0.08252283        0.23228091        0.09140408        0.00782016        0.00365654        0.03561881        0.00487181        0.00741884
     131         -0.205288        2.000000        0.01835409        0.22534797        0.20407168        0.17348789        0.01130201        0.00755942        0.02211812        0.00686399        0.01529072
     132         -0.204175        2.000000        0.01506454        0.13966177        0.19326909        0.13503435        0.00584567        0.00492941        0.03118062        0.00788658        0.01198170
     133         -0.201681        2.000000        0.02448760        0.14116261        0.25124608        0.10948481        0.01049532        0.00519589        0.03423716        0.00728259        0.01229248
     134         -0.199083        2.000000        0.01496193        0.22571558        0.19597485        0.20501305        0.01506222        0.00866308        0.02261750        0.00905864        0.01037350
     135         -0.198244        2.000000        0.02629681        0.23346037        0.19479011        0.21979447        0.01951282        0.00779088        0.02140715        0.00955255        0.01246930
     136         -0.197362        2.000000        0.01918781        0.14826582        0.24584252        0.17624609        0.00667655        0.00791793        0.03460933        0.00695714        0.01723811
     137         -0.196361        2.000000        0.01999587        0.24340044        0.19733545        0.19091022        0.01175510        0.01084731        0.02298293        0.00940109        0.01526470
     138         -0.194993        2.000000        0.02059285        0.24553279        0.20226384        0.17538760        0.01734272        0.01352242        0.02193248        0.00850485        0.01093721
     139         -0.190467        2.000000        0.00048907        0.00693133        0.00754337        0.00373097        0.00034873        0.00029268        0.00104562        0.00022978        0.00042115
     140         -0.189246        2.000000        0.00105631        0.00582734        0.01405931        0.00654200        0.00048127        0.00036861        0.00233560        0.00022212        0.00069418
     141         -0.186057        2.000000        0.00022776        0.00203999        0.00310160        0.00206469        0.00016379        0.00010861        0.00049711        0.00007442        0.00012029
     142         -0.173582        2.000000        0.00003917        0.00040926        0.00097265        0.00035631        0.00002121        0.00002064        0.00011444        0.00001783        0.00003428
     143         -0.168781        2.000000        0.00003578        0.00047863        0.00056197        0.00110595        0.00003230        0.00002514        0.00003302        0.00004832        0.00002679
     144         -0.166171        2.000000        0.00009309        0.00132849        0.00111627        0.00955204        0.00012727        0.00005809        0.00009201        0.00024955        0.00006913