# Projected DOS for atomic kind H at iteration step i = 0, E(Fermi) =    -0.093869 a.u.
#     MO Eigenvalue [a.u.]      Occupation                 s                py                pz                px
       1         -0.557902        2.000000        0.11052288        0.00126790        0.07941147        0.00078042
       2         -0.544786        2.000000        0.14914572        0.00070769        0.11725580        0.00036075
       3         -0.537093        2.000000        0.10409108        0.00541152        0.07084559        0.00777872
       4         -0.534652        2.000000        0.09933067        0.00868172        0.07206640        0.00362595
       5         -0.530474        2.000000        0.10311281        0.00296731        0.07341188        0.00948740
       6         -0.528966        2.000000        0.11246956        0.00641120        0.06583790        0.00783398
       7         -0.526997        2.000000        0.10783591        0.01297037        0.06845409        0.00202595
       8         -0.525824        2.000000        0.10610709        0.00686542        0.08772419        0.00328712
       9         -0.521735        2.000000        0.11012471        0.00517266        0.06387141        0.01095782
      10         -0.520115        2.000000        0.10848659        0.00403129        0.08694094        0.00774611
      11         -0.519254        2.000000        0.11155263        0.00483457        0.08402321        0.00736721
      12         -0.518298        2.000000        0.10986699        0.00469054        0.08706502        0.00672960
      13         -0.514106        2.000000        0.11762476        0.00560829        0.08046672        0.00661920
      14         -0.511573        2.000000        0.11446481        0.01100995        0.07629645        0.00338837
      15         -0.490978        2.000000        0.11018205        0.01064182        0.06013536        0.00553564
      16         -0.487780        2.000000        0.10823022        0.00452451        0.05873587        0.01293794
      17         -0.484250        2.000000        0.11143091        0.00482313        0.05724126        0.01158826
      18         -0.483208        2.000000        0.11290796        0.00932912        0.05741959        0.00936318
      19         -0.481417        2.000000        0.11593056        0.01038235        0.05514434        0.00743356
      20         -0.480831        2.000000        0.11713106        0.00969783        0.05613803        0.00623523
      21         -0.479149        2.000000        0.10849413        0.00616670        0.06196161        0.00608102
      22         -0.478282        2.000000        0.11307289        0.00739635        0.06011860        0.00553879
      23         -0.476844        2.000000        0.11477529        0.00893671        0.05532444        0.00807012
      24         -0.475690        2.000000        0.11032016        0.00765217        0.06211998        0.00433145
      25         -0.472955        2.000000        0.11772087        0.00799478        0.05536829        0.00542060
      26         -0.472488        2.000000        0.11475868        0.00727250        0.05405426        0.00654906
      27         -0.470764        2.000000        0.11566938        0.00458456        0.05432473        0.00794221
      28         -0.469375        2.000000        0.11246424        0.00820358        0.05258547        0.00532889
      29         -0.468630        2.000000        0.11713768        0.00628624        0.05384541        0.01126913
      30         -0.467820        2.000000        0.11565904        0.00658743        0.05697301        0.00646117
      31         -0.467660        2.000000        0.11275185        0.00620325        0.06023347        0.00816755
      32         -0.463850        2.000000        0.12127722        0.00592435        0.05394768        0.00800965
      33         -0.422990        2.000000        0.17095517        0.00522056        0.04034214        0.01511277
      34         -0.420094        2.000000        0.17021135        0.00590517        0.03914386        0.01322665
      35         -0.417788        2.000000        0.17718673        0.01720650        0.03542746        0.00320511
      36         -0.414307        2.000000        0.20213880        0.00646045        0.03732804        0.00608308
      37         -0.411364        2.000000        0.17018905        0.00582282        0.03946620        0.00607136
      38         -0.410258        2.000000        0.18969782        0.00594061        0.03889281        0.00701383
      39         -0.409887        2.000000        0.16676126        0.00854541        0.03494383        0.00533154
      40         -0.409156        2.000000        0.15901808        0.00476380        0.03899393        0.00913773
      41         -0.407731        2.000000        0.19153966        0.00540824        0.03676962        0.00478798
      42         -0.406309        2.000000        0.18609040        0.00526587        0.04201411        0.00459596
      43         -0.403681        2.000000        0.18515865        0.00353287        0.04326234        0.00767185
      44         -0.402559        2.000000        0.18287038        0.00604255        0.04030296        0.00602667
      45         -0.401311        2.000000        0.19405116        0.00629498        0.03916710        0.00448303
      46         -0.400294        2.000000        0.18570161        0.00559934        0.03676375        0.00602708
      47         -0.399780        2.000000        0.18749703        0.00535792        0.03806769        0.00742583
      48         -0.398394        2.000000        0.19199152        0.00447958        0.03885280        0.00447691
      49         -0.397128        2.000000        0.17971733        0.00674591        0.03976238        0.00623602
      50         -0.396323        2.000000        0.19346860        0.00445277        0.03553111        0.00571440
      51         -0.385975        2.000000        0.30576109        0.00370525        0.02293442        0.00360034
      52         -0.380330        2.000000        0.31718491        0.00479697        0.01696430        0.00123557
      53         -0.378937        2.000000        0.32507205        0.00315727        0.01663678        0.00252134
      54         -0.376591        2.000000        0.30792563        0.00235304        0.01967487        0.00524795
      55         -0.374667        2.000000        0.30927211        0.00220666        0.01981951        0.00368414
      56         -0.372251        2.000000        0.31000809        0.00167513        0.01860348        0.00494320
      57         -0.371697        2.000000        0.30954712        0.00411840        0.02212430        0.00214685
      58         -0.366014        2.000000        0.29863953        0.00273618        0.04048330        0.00248817
      59         -0.363994        2.000000        0.29939185        0.00165392        0.04218289        0.00241231
      60         -0.363762        2.000000        0.29578671        0.00214967        0.04462549        0.00360035
      61         -0.361535        2.000000        0.29534117        0.00227284        0.04778999        0.00289186
      62         -0.360451        2.000000        0.29300879        0.00149434        0.04587227        0.00241928
      63         -0.358359        2.000000        0.29067646        0.00353969        0.04395818        0.00135742
      64         -0.354099        2.000000        0.31800179        0.00123516        0.04918789        0.00097515
      65         -0.280999        2.000000        0.24011625        0.00699169        0.00112451        0.02234391
      66         -0.278908        2.000000        0.23312816        0.01020412        0.00174716        0.02662820
      67         -0.274945        2.000000        0.22354439        0.02297774        0.00251793        0.01085465
      68         -0.272679        2.000000        0.21428979        0.01447625        0.00499145        0.02579297
      69         -0.269822        2.000000        0.20978310        0.02390593        0.00413981        0.02043769
      70         -0.268877        2.000000        0.20536804        0.02055517        0.00487951        0.02078194
      71         -0.267051        2.000000        0.21725544        0.01509378        0.00383554        0.02165435
      72         -0.265116        2.000000        0.22687460        0.01441667        0.00344161        0.02280261
      73         -0.263641        2.000000        0.21204198        0.01407434        0.00325745        0.02290292
      74         -0.262931        2.000000        0.21995721        0.01641007        0.00490827        0.01542284
      75         -0.261859        2.000000        0.21853708        0.01312702        0.00255541        0.01994550
      76         -0.260837        2.000000        0.19641890        0.01872415        0.00412826        0.01877458
      77         -0.258396        2.000000        0.22783072        0.01533035        0.00419309        0.01279496
      78         -0.256159        2.000000        0.26956701        0.01229187        0.00519893        0.00805052
      79         -0.255118        2.000000        0.21016249        0.01511198        0.00659079        0.01483443
      80         -0.254463        2.000000        0.23472978        0.01857819        0.00501797        0.01341033
      81         -0.253629        2.000000        0.20762504        0.01413144        0.00812613        0.01529013
      82         -0.251748        2.000000        0.25340902        0.01461142        0.00546470        0.01188616
      83         -0.251401        2.000000        0.19996835        0.01876915        0.00369712        0.01445822
      84         -0.250569        2.000000        0.21441111        0.01416290        0.00744453        0.02189521
      85         -0.250231        2.000000        0.21066233        0.01434051        0.00658709        0.01653310
      86         -0.249321        2.000000        0.22664048        0.01381380        0.00711606        0.01609834
      87         -0.248884        2.000000        0.24953634        0.01521559        0.00483322        0.01269876
      88         -0.247974        2.000000        0.23137102        0.02029666        0.00663634        0.01306251
      89         -0.246832        2.000000        0.18238680        0.01802111        0.00458424        0.01959866
      90         -0.246522        2.000000        0.25234786        0.01119013        0.00423654        0.01331592
      91         -0.245907        2.000000        0.20408472        0.01793967        0.01170639        0.01866812
      92         -0.244908        2.000000        0.23041032        0.01657805        0.01030929        0.01366082
      93         -0.244614        2.000000        0.22450939        0.01269614        0.00963982        0.01845956
      94         -0.243393        2.000000        0.22686557        0.01473647        0.00765445        0.01372448
      95         -0.242934        2.000000        0.23284648        0.02001410        0.00888573        0.00871071
      96         -0.242203        2.000000        0.23452927        0.01214798        0.00565697        0.01740601
      97         -0.241540        2.000000        0.25629044        0.01121088        0.00677081        0.01100951
      98         -0.240749        2.000000        0.23300092        0.01920107        0.01096848        0.01178089
      99         -0.240137        2.000000        0.21153666        0.00946875        0.00699154        0.01965433
     100         -0.238476        2.000000        0.25722657        0.01239506        0.00574777        0.01390946
     101         -0.238226        2.000000        0.24386605        0.01227881        0.01100495        0.01435673
     102         -0.237512        2.000000        0.25236689        0.01618135        0.00692954        0.01124566
     103         -0.236040        2.000000        0.22339652        0.01220251        0.00607282        0.01469788
     104         -0.235495        2.000000        0.29230612        0.01007509        0.00839616        0.01328790
     105         -0.234495        2.000000        0.21191926        0.01334290        0.00690439        0.01381085
     106         -0.233568        2.000000        0.25480137        0.01082968        0.00813227        0.01241449
     107         -0.232835        2.000000        0.18430239        0.01555213        0.00466159        0.01656894
     108         -0.231579        2.000000        0.23220328        0.00889317        0.00799837        0.01544800
     109         -0.230971        2.000000        0.25167333        0.01238276        0.00881024        0.01511097
     110         -0.230574        2.000000        0.24903328        0.01430085        0.01099921        0.01019710
     111         -0.229195        2.000000        0.26877282        0.00986684        0.00693577        0.01482058
     112         -0.228270        2.000000        0.25090547        0.01331272        0.00754670        0.01390801
     113         -0.226944        2.000000        0.16727360        0.02033266        0.00841854        0.01379562
     114         -0.226146        2.000000        0.26022182        0.01116126        0.00678123        0.01311511
     115         -0.225967        2.000000        0.15568696        0.01394122        0.00701803        0.01922556
     116         -0.224237        2.000000        0.19303813        0.01442366        0.00616746        0.01555980
     117         -0.223831        2.000000        0.22277870        0.01607595        0.00863264        0.01268662
     118         -0.223216        2.000000        0.21420066        0.01597740        0.00614000        0.01462481
     119         -0.222160        2.000000        0.18874319        0.01957956        0.00636999        0.01301796
     120         -0.221434        2.000000        0.22924296        0.01670653        0.00563249        0.01316161
     121         -0.221163        2.000000        0.21460637        0.02029929        0.00781437        0.01351425
     122         -0.219799        2.000000        0.23518100        0.01308103        0.00662342        0.01484316
     123         -0.219407        2.000000        0.24841213        0.01575721        0.00910837        0.01221111
     124         -0.218050        2.000000        0.21618284        0.01591242        0.00520724        0.01893883
     125         -0.215861        2.000000        0.19782262        0.01520972        0.00524780        0.01584635
     126         -0.214140        2.000000        0.26156330        0.01154831        0.00757889        0.01270283
     127         -0.212966        2.000000        0.28073274        0.00848487        0.00783722        0.01329538
     128         -0.212246        2.000000        0.28567829        0.01414281        0.00843549        0.01103444
     129         -0.208755        2.000000        0.21551608        0.01283006        0.00804537        0.01586574
     130         -0.207647        2.000000        0.28356393        0.01172827        0.00741794        0.01173470
     131         -0.205684        2.000000        0.25041457        0.01828407        0.00721067        0.00922983
     132         -0.204446        2.000000        0.20806842        0.01828720        0.01071077        0.01345731
     133         -0.201276        2.000000        0.20576279        0.01549203        0.01113126        0.01657823
     134         -0.200832        2.000000        0.22817089        0.01158411        0.01157004        0.01750718
     135         -0.198988        2.000000        0.24435310        0.01394779        0.01098130        0.01463934
     136         -0.197866        2.000000        0.15501609        0.01697223        0.01014565        0.02108897
     137         -0.195330        2.000000        0.15761138        0.02897957        0.00839677        0.01323598
     138         -0.194685        2.000000        0.15482174        0.02274045        0.01039050        0.01675883
     139         -0.192943        2.000000        0.02575634        0.02912837        0.00175488        0.01268114
     140         -0.191342        2.000000        0.02754911        0.00478858        0.00167764        0.03676484
     141         -0.187974        2.000000        0.01346051        0.03229187        0.00142307        0.01078164
     142         -0.176340        2.000000        0.00659244        0.00406807        0.00133921        0.03736029
     143         -0.170494        2.000000        0.00332958        0.02780890        0.00101505        0.01508669
     144         -0.168641        2.000000        0.00794007        0.03088991        0.00220037        0.01162923
     145         -0.167169        2.000000        0.00641702        0.02826759        0.00172156        0.01280708
     146         -0.166765        2.000000        0.00625415        0.02969274        0.00119775        0.01201754
     147         -0.163270        2.000000        0.00742840        0.00329749        0.00202568        0.04824257
     148         -0.161343        2.000000        0.00295664        0.01161154        0.00126032        0.02971363
     149         -0.159560        2.000000        0.00861418        0.03857483        0.00304572        0.01223571
     150         -0.156665        2.000000        0.01102428        0.03890596        0.00350600        0.01225429
     151         -0.142100        2.000000        0.00314835        0.00743016        0.00162327        0.04180655
     152         -0.138061        2.000000        0.00188810        0.00052444        0.00086294        0.03764635
     153         -0.137061        2.000000        0.00413749        0.03283881        0.00228405        0.01634725
     154         -0.135786        2.000000        0.00269314        0.01736848        0.00108352        0.03306887
     155         -0.135022        2.000000        0.00250263        0.04067022        0.00108264        0.00068448
     156         -0.133176        2.000000        0.00479655        0.03726735        0.00194469        0.01204159
     157         -0.129202        2.000000        0.00294260        0.02354171        0.00207072        0.02687182
     158         -0.127246        2.000000        0.00365417        0.03602790        0.00176611        0.01543614
     159         -0.099755        2.000000        0.00319115        0.00138090        0.00087817        0.04588605
     160         -0.093869        2.000000        0.00322241        0.04764610        0.00083217        0.00159259
     161         -0.025751        0.000000        0.03024127        0.00138932        0.01760028        0.00153796
     162         -0.018744        0.000000        0.01195324        0.00420280        0.01363264        0.00251114
     163         -0.017742        0.000000        0.00496355        0.00860104        0.01598742        0.00794341
     164         -0.015324        0.000000        0.00503354        0.01050265        0.01445857        0.01213862
     165         -0.012923        0.000000        0.00542147        0.01045269        0.01497040        0.01421874
     166         -0.005413        0.000000        0.01183804        0.02173028        0.01619593        0.01213988
     167         -0.003995        0.000000        0.01399682        0.01503251        0.01364949        0.01820778
     168         -0.000247        0.000000        0.01333798        0.01668882        0.01982065        0.01989909
     169          0.000186        0.000000        0.01405506        0.01175835        0.01625018        0.02559566
     170          0.001667        0.000000        0.01406505        0.01466090        0.01518234        0.02317073
     171          0.003398        0.000000        0.01368426        0.01507622        0.01735310        0.02356606
     172          0.003560        0.000000        0.01404417        0.01452171        0.01384147        0.02246587
     173          0.006408        0.000000        0.01795329        0.02585209        0.02258529        0.01514926
     174          0.008400        0.000000        0.01263190        0.02467752        0.01566511        0.00956192
     175          0.017753        0.000000        0.00900804        0.01871217        0.02174730        0.03023764
     176          0.022742        0.000000        0.01201634        0.03545869        0.02302045        0.01645899
     177          0.023418        0.000000        0.01007962        0.02979901        0.02192603        0.02569177
     178          0.027162        0.000000        0.01072552        0.02048979        0.02460441        0.02983934
     179          0.028977        0.000000        0.01085405        0.02230659        0.02490783        0.03008949
     180          0.031233        0.000000        0.01904507        0.02170140        0.03506242        0.02421342
     181          0.048949        0.000000        0.02899224        0.04104650        0.02871336        0.06886109
     182          0.049446        0.000000        0.05780855        0.07100743        0.06161570        0.10959068
     183          0.053186        0.000000        0.03719679        0.06066403        0.04169807        0.05956366
     184          0.053544        0.000000        0.03175425        0.02309309        0.02629130        0.08883657
     185          0.058940        0.000000        0.07099244        0.14950126        0.06731718        0.05958357
     186          0.062054        0.000000        0.07785942        0.08822712        0.05913969        0.08414787
     187          0.067540        0.000000        0.07133491        0.05212891        0.05930965        0.10819276
     188          0.071433        0.000000        0.06483985        0.05947368        0.06292192        0.08987831
     189          0.072078        0.000000        0.06486696        0.05285733        0.06145886        0.10988685
     190          0.073480        0.000000        0.07347853        0.10183502        0.05521786        0.06667654
     191          0.075674        0.000000        0.06083154        0.08028906        0.05471627        0.08727218
     192          0.077326        0.000000        0.06690852        0.06253079        0.05653166        0.10059787
     193          0.081327        0.000000        0.05634328        0.12429137        0.05264124        0.03722900
     194          0.082559        0.000000        0.05898932        0.07018847        0.07452460        0.11621327
     195          0.083898        0.000000        0.07081212        0.09624279        0.05758178        0.07127207
     196          0.084888        0.000000        0.05475884        0.11213014        0.07132885        0.03639035
     197          0.085836        0.000000        0.06228691        0.09197653        0.06286440        0.07426610
     198          0.088227        0.000000        0.05442827        0.08897059        0.05698635        0.05911306
     199          0.089386        0.000000        0.05669039        0.06478641        0.05585332        0.05570858
     200          0.091126        0.000000        0.07299898        0.07723992        0.05906105        0.07069144
     201          0.093404        0.000000        0.08700860        0.06411311        0.06254507        0.07397036
     202          0.094966        0.000000        0.05844809        0.05667481        0.03851535        0.04893020
     203          0.096771        0.000000        0.06349564        0.04024257        0.05116806        0.05873781
     204          0.097759        0.000000        0.05047087        0.04947185        0.03641677        0.06146285
     205          0.098280        0.000000        0.07235328        0.06427973        0.05687036        0.07310587
     206          0.099910        0.000000        0.08208337        0.05494725        0.05413256        0.07897403
     207          0.101418        0.000000        0.08175570        0.06037776        0.04784206        0.05326362
     208          0.102051        0.000000        0.08005467        0.06045657        0.05255790        0.06378771
     209          0.103227        0.000000        0.09516508        0.05085087        0.04641648        0.06296271
     210          0.103974        0.000000        0.10303282        0.03969710        0.05089724        0.05164573
