# Projected DOS for atomic kind Si at iteration step i = 0, E(Fermi) =    -0.095688 a.u.
#     MO Eigenvalue [a.u.]      Occupation                 s                py                pz                px               d-2               d-1                d0               d+1               d+2
       1         -0.559136        2.000000        0.01069339        0.00029057        0.00162593        0.00017291        0.00002115        0.00003779        0.00012090        0.00002565        0.00001602
       2         -0.541990        2.000000        0.65332285        0.00322567        0.02632535        0.00260129        0.00081779        0.00042110        0.03000355        0.00025025        0.00068346
       3         -0.538046        2.000000        0.00686290        0.00144679        0.00126470        0.00247922        0.00020586        0.00009704        0.00024924        0.00015472        0.00008754
       4         -0.535583        2.000000        0.00568439        0.00216121        0.00117287        0.00097949        0.00006777        0.00015154        0.00020729        0.00007203        0.00016500
       5         -0.531030        2.000000        0.00842250        0.00159356        0.00083466        0.00294816        0.00021811        0.00010371        0.00012566        0.00016089        0.00015812
       6         -0.529611        2.000000        0.01203175        0.00382512        0.00090858        0.00245284        0.00024813        0.00016543        0.00015387        0.00012236        0.00034530
       7         -0.527149        2.000000        0.01244630        0.00474696        0.00080352        0.00225060        0.00022703        0.00022876        0.00010850        0.00011465        0.00039836
       8         -0.522278        2.000000        0.09794739        0.02214853        0.00256182        0.02275794        0.00255727        0.00120232        0.00114770        0.00079770        0.00276248
       9         -0.521497        2.000000        0.41620453        0.11452091        0.01192499        0.06852201        0.00890318        0.00584173        0.00657550        0.00330254        0.01447790
      10         -0.517869        2.000000        0.49063437        0.12968450        0.00898038        0.09024061        0.01144992        0.00600519        0.00835698        0.00457356        0.01550489
      11         -0.516155        2.000000        0.49274165        0.06398067        0.01164279        0.15576008        0.01865156        0.00290275        0.00703087        0.00819144        0.00759275
      12         -0.514936        2.000000        0.49459889        0.08320534        0.01164207        0.14068042        0.01734978        0.00462967        0.00686200        0.00609051        0.01107216
      13         -0.512219        2.000000        0.49817129        0.09447621        0.00960092        0.13225421        0.01595333        0.00436358        0.00662053        0.00678780        0.01275330
      14         -0.509500        2.000000        0.49940024        0.15974493        0.00795639        0.07210207        0.00908947        0.00808902        0.00654219        0.00331155        0.01953371
      15         -0.491857        2.000000        0.00169956        0.00134338        0.00050929        0.00060988        0.00015032        0.00022691        0.00013164        0.00013915        0.00012842
      16         -0.487502        2.000000        0.00305869        0.00094974        0.00053441        0.00225777        0.00023097        0.00017086        0.00017177        0.00024250        0.00028108
      17         -0.486786        2.000000        0.00189229        0.00063651        0.00038767        0.00158159        0.00015835        0.00014231        0.00013459        0.00023193        0.00017212
      18         -0.483671        2.000000        0.00428246        0.00228663        0.00035122        0.00176449        0.00034604        0.00019689        0.00014774        0.00021094        0.00032495
      19         -0.481887        2.000000        0.00918989        0.00472620        0.00043869        0.00353479        0.00079431        0.00033115        0.00020114        0.00033113        0.00067899
      20         -0.480969        2.000000        0.00653852        0.00249437        0.00069978        0.00323871        0.00059142        0.00042876        0.00021681        0.00039734        0.00058448
      21         -0.480006        2.000000        0.00432400        0.00208303        0.00042517        0.00223755        0.00037387        0.00027134        0.00018111        0.00025918        0.00036915
      22         -0.476389        2.000000        0.29232910        0.10722067        0.00149740        0.13001543        0.02571517        0.00680632        0.00077153        0.00952351        0.02389021
      23         -0.475241        2.000000        0.12406380        0.04509464        0.00090237        0.05399794        0.01059555        0.00396859        0.00031688        0.00399851        0.00994014
      24         -0.472962        2.000000        0.36667366        0.15290106        0.00125083        0.14824141        0.02894891        0.01152336        0.00079287        0.01181388        0.03080580
      25         -0.471322        2.000000        0.19304973        0.08465181        0.00126767        0.06852601        0.01414536        0.00650175        0.00044164        0.00430552        0.02053498
      26         -0.470560        2.000000        0.20660352        0.09207150        0.00123547        0.06817166        0.01633870        0.00734247        0.00053293        0.00488053        0.02204421
      27         -0.469451        2.000000        0.39952350        0.20916431        0.00151976        0.08708140        0.02417281        0.01626908        0.00094634        0.00686837        0.05659075
      28         -0.468990        2.000000        0.39928464        0.16641893        0.00148438        0.13775225        0.04126698        0.01368163        0.00118997        0.00984875        0.03655837
      29         -0.467896        2.000000        0.40417056        0.07491549        0.00079928        0.21269344        0.06586194        0.00623856        0.00129156        0.01702847        0.02953864
      30         -0.465342        2.000000        0.39982033        0.12744738        0.00127766        0.17987993        0.04242541        0.00894163        0.00132379        0.01443875        0.03214275
      31         -0.464545        2.000000        0.40704869        0.17938124        0.00114017        0.10208501        0.02658859        0.01572846        0.00134511        0.00653587        0.06793555
      32         -0.463132        2.000000        0.40480938        0.08855618        0.00214452        0.18712959        0.06659726        0.00611614        0.00119328        0.01733976        0.03413994
      33         -0.423857        2.000000        0.00721204        0.00315023        0.00267230        0.00780020        0.00026208        0.00028353        0.00064375        0.00068666        0.00006436
      34         -0.421453        2.000000        0.00724937        0.00350328        0.00305293        0.00804389        0.00016878        0.00048114        0.00079468        0.00066947        0.00011539
      35         -0.419171        2.000000        0.01758908        0.02218716        0.00791112        0.00177460        0.00033181        0.00207087        0.00170707        0.00050239        0.00078811
      36         -0.412287        2.000000        0.01701374        0.01033934        0.00638692        0.01124265        0.00101137        0.00159455        0.00138917        0.00157150        0.00058874
      37         -0.410635        2.000000        0.20867024        0.09319802        0.03933954        0.16604827        0.00929219        0.01323471        0.01010550        0.01708751        0.00444508
      38         -0.410275        2.000000        0.12653899        0.04909053        0.02194497        0.11635144        0.00426667        0.00551004        0.00658543        0.01198858        0.00196653
      39         -0.408607        2.000000        0.03300282        0.03024591        0.00939873        0.00938851        0.00095904        0.00389117        0.00240610        0.00166199        0.00188440
      40         -0.407927        2.000000        0.21203385        0.23000920        0.03787289        0.04448007        0.00274464        0.02349635        0.01161358        0.00600492        0.00870918
      41         -0.407463        2.000000        0.10041945        0.03909396        0.01916562        0.08964850        0.00398332        0.00514171        0.00543650        0.00955293        0.00250603
      42         -0.406803        2.000000        0.10128646        0.03539281        0.01688549        0.09713397        0.00418276        0.00456189        0.00506934        0.01069539        0.00147868
      43         -0.405877        2.000000        0.07646204        0.06031211        0.01440656        0.03356384        0.00325430        0.00730470        0.00423206        0.00396012        0.00399527
      44         -0.403980        2.000000        0.03316080        0.01481874        0.01031490        0.01596106        0.00232297        0.00267212        0.00236342        0.00325264        0.00248106
      45         -0.401295        2.000000        0.26895588        0.10777788        0.05905725        0.14253999        0.03038533        0.01472602        0.01693014        0.02197779        0.01581958
      46         -0.399338        2.000000        0.27278026        0.14775730        0.06860414        0.09445286        0.01566078        0.02326864        0.01630242        0.01526500        0.02999276
      47         -0.398143        2.000000        0.28773923        0.13495078        0.07550587        0.12750273        0.02156467        0.01986619        0.01797045        0.02144286        0.02766834
      48         -0.397548        2.000000        0.29054046        0.12011553        0.06660516        0.14829018        0.02823105        0.01847307        0.02013905        0.02083223        0.02213103
      49         -0.395171        2.000000        0.29639756        0.14142606        0.06301947        0.13651443        0.02606958        0.01655185        0.02237528        0.01860588        0.02881516
      50         -0.393033        2.000000        0.29545292        0.13536039        0.06253359        0.14051428        0.02847437        0.01727993        0.02309498        0.01744577        0.02728689
      51         -0.388484        2.000000        0.04282624        0.01180496        0.08179145        0.01535313        0.00319410        0.00265021        0.00707345        0.00364651        0.00229196
      52         -0.381398        2.000000        0.04658360        0.01212342        0.09457539        0.00647622        0.00156080        0.00702794        0.00727154        0.00336071        0.00295519
      53         -0.380459        2.000000        0.02589004        0.00371854        0.06530928        0.00667711        0.00162855        0.00135693        0.00507674        0.00360575        0.00073312
      54         -0.377395        2.000000        0.02800208        0.00484572        0.07055865        0.00555909        0.00157070        0.00252846        0.00561149        0.00288278        0.00142585
      55         -0.375809        2.000000        0.08610695        0.01335035        0.21039106        0.01141941        0.00389777        0.00478769        0.00991699        0.00922786        0.00295012
      56         -0.374264        2.000000        0.09274387        0.02260022        0.17746654        0.01063055        0.00240198        0.01192618        0.01160321        0.00426875        0.00616301
      57         -0.368678        2.000000        0.07785449        0.01394782        0.14783188        0.01328425        0.00333332        0.00665086        0.01046622        0.00746244        0.00416259
      58         -0.366097        2.000000        0.15267156        0.02795861        0.23213947        0.03484357        0.00978381        0.00980667        0.01593569        0.01370070        0.00551711
      59         -0.363664        2.000000        0.16377240        0.04286890        0.24325503        0.02695675        0.00613764        0.01384158        0.01974375        0.01053650        0.01080276
      60         -0.363062        2.000000        0.12656452        0.01771221        0.18203034        0.03469317        0.00829198        0.00586253        0.01280279        0.01364160        0.00423796
      61         -0.360853        2.000000        0.15412530        0.03339492        0.23393367        0.02734395        0.00674613        0.01131364        0.01609965        0.01086613        0.00824703
      62         -0.360646        2.000000        0.12248167        0.02141744        0.18362775        0.03168933        0.00736847        0.00843735        0.01430711        0.00869531        0.00585875
      63         -0.357411        2.000000        0.13381738        0.02909093        0.20078317        0.02622327        0.00551005        0.01201421        0.01525560        0.00790504        0.00764588
      64         -0.354162        2.000000        0.07864666        0.00641563        0.23716867        0.00598284        0.00079179        0.00180797        0.00701606        0.00120334        0.00111606
      65         -0.278468        2.000000        0.00577700        0.10104825        0.36115096        0.17129119        0.00217978        0.00345324        0.01554311        0.00414226        0.00314055
      66         -0.277477        2.000000        0.00439616        0.09862846        0.38357685        0.19677255        0.00274110        0.00310794        0.01782748        0.00367020        0.00268388
      67         -0.274556        2.000000        0.00586609        0.22089107        0.36775396        0.04756248        0.00369400        0.00395414        0.01829017        0.00171069        0.00188489
      68         -0.270873        2.000000        0.01394551        0.08186570        0.24384360        0.10164966        0.00712910        0.00691935        0.00947867        0.00272920        0.01447099
      69         -0.270167        2.000000        0.00972483        0.06024116        0.20982358        0.07351615        0.00895893        0.00399148        0.00967032        0.00279734        0.00577910
      70         -0.267565        2.000000        0.00852739        0.06102475        0.25935947        0.10414755        0.00957306        0.00215501        0.01207196        0.00368160        0.00583333
      71         -0.266528        2.000000        0.01015852        0.04828243        0.17396339        0.08386992        0.00811089        0.00288647        0.00840010        0.00299389        0.00722507
      72         -0.264495        2.000000        0.01376420        0.10079561        0.25741137        0.11664639        0.00644338        0.00736309        0.01071499        0.00190326        0.01653822
      73         -0.262651        2.000000        0.01354168        0.08046794        0.28594119        0.11072301        0.01157110        0.00385107        0.01032244        0.00370421        0.00981404
      74         -0.261691        2.000000        0.01041364        0.08859036        0.23631291        0.08070024        0.00748093        0.00397250        0.01240963        0.00244372        0.01083717
      75         -0.259757        2.000000        0.01236623        0.06166908        0.24431614        0.12299922        0.00955743        0.00359310        0.01059261        0.00188668        0.01216166
      76         -0.259451        2.000000        0.01049909        0.07698921        0.24763882        0.14172455        0.01192603        0.00759951        0.01938849        0.00228765        0.00614964
      77         -0.257837        2.000000        0.01318247        0.10953992        0.27400672        0.15995800        0.01384245        0.00711371        0.04524770        0.00395563        0.00550645
      78         -0.254824        2.000000        0.01004758        0.08816766        0.15913851        0.06031407        0.00505864        0.00534976        0.02689684        0.00235354        0.00833313
      79         -0.254213        2.000000        0.00681272        0.09086908        0.15318982        0.14264264        0.00717873        0.00627664        0.03007389        0.00317026        0.00798403
      80         -0.253766        2.000000        0.00731360        0.17835216        0.24918264        0.05183861        0.00690805        0.00458089        0.04053414        0.01000737        0.00498187
      81         -0.253055        2.000000        0.00706202        0.06298965        0.16545006        0.08230161        0.00580719        0.00542725        0.03472354        0.00296075        0.00342387
      82         -0.252030        2.000000        0.01239439        0.09001062        0.24633028        0.09725415        0.00835307        0.00489418        0.04629038        0.00506500        0.00839087
      83         -0.251367        2.000000        0.01140464        0.11652913        0.24963467        0.08480241        0.00828802        0.00823888        0.04990320        0.00741829        0.00661639
      84         -0.250810        2.000000        0.00629903        0.06796697        0.15995598        0.05888562        0.00422857        0.00714467        0.03009063        0.00493099        0.00432560
      85         -0.250546        2.000000        0.01610878        0.07817726        0.14365997        0.07303705        0.00963729        0.00338154        0.02491085        0.00195167        0.00758488
      86         -0.249965        2.000000        0.01300991        0.06599512        0.18623781        0.10882219        0.00952294        0.00533493        0.04617583        0.00594218        0.00589853
      87         -0.248690        2.000000        0.00797219        0.05898754        0.18627552        0.05862076        0.00771719        0.00361956        0.04271533        0.00658475        0.00496914
      88         -0.247815        2.000000        0.01035032        0.11143053        0.15020370        0.10283791        0.00991411        0.00399599        0.02706049        0.00659051        0.00636485
      89         -0.247119        2.000000        0.01330836        0.08831495        0.23678501        0.13210172        0.01147445        0.00568535        0.04568770        0.00725712        0.00457473
      90         -0.246181        2.000000        0.01408163        0.06295922        0.19695776        0.07253078        0.01043004        0.00411927        0.05454733        0.00380116        0.00443043
      91         -0.245460        2.000000        0.01219248        0.08418253        0.14076053        0.06644322        0.00619802        0.00582907        0.03018485        0.00313818        0.00862875
      92         -0.244686        2.000000        0.01377584        0.08224252        0.17863987        0.10576505        0.00951588        0.00658780        0.04107222        0.00568492        0.00699352
      93         -0.244109        2.000000        0.02970377        0.24760712        0.19612151        0.07077186        0.00546518        0.00551078        0.04258075        0.00390194        0.03364080
      94         -0.242891        2.000000        0.01507314        0.14439575        0.17928215        0.08395389        0.01123503        0.00694665        0.03220001        0.00544156        0.01113315
      95         -0.242170        2.000000        0.01586181        0.06950738        0.16237373        0.11175529        0.01514991        0.00378229        0.02931959        0.00499789        0.00739907
      96         -0.241865        2.000000        0.01418435        0.07223662        0.12922607        0.12335615        0.01292218        0.00235064        0.02245895        0.00544737        0.00866073
      97         -0.241204        2.000000        0.01800196        0.07399012        0.17945986        0.10096820        0.01351446        0.00402526        0.02625798        0.00392752        0.01029350
      98         -0.240517        2.000000        0.00825175        0.08581148        0.12785218        0.03942174        0.00361914        0.00279631        0.03641017        0.00567569        0.00552307
      99         -0.239548        2.000000        0.01520461        0.15222237        0.17861153        0.15628635        0.01550202        0.00827922        0.04054278        0.00562681        0.01288047
     100         -0.238312        2.000000        0.01167708        0.04011930        0.11574898        0.05395822        0.00540509        0.00384848        0.02168658        0.00309859        0.00962483
     101         -0.237733        2.000000        0.02820402        0.12944535        0.16277455        0.17070243        0.01979289        0.00534165        0.02082983        0.00204190        0.01935307
     102         -0.236853        2.000000        0.02588864        0.15616467        0.23540600        0.08654630        0.01196024        0.00563016        0.06014560        0.00431637        0.02224816
     103         -0.236121        2.000000        0.01080989        0.04808173        0.14882456        0.05793450        0.00722757        0.00304913        0.04642117        0.00334800        0.00767734
     104         -0.234973        2.000000        0.01880012        0.06816794        0.17069604        0.11055056        0.01463612        0.00362149        0.03623416        0.00376584        0.01118260
     105         -0.234300        2.000000        0.01301580        0.07197173        0.12859787        0.12655614        0.01333437        0.00511074        0.03074027        0.00358160        0.01010233
     106         -0.233459        2.000000        0.02352063        0.13807082        0.14995244        0.05884729        0.00734763        0.00334475        0.02376131        0.00264081        0.02460089
     107         -0.232386        2.000000        0.01126331        0.07059615        0.13076532        0.07072568        0.00731150        0.00499671        0.03083683        0.00390668        0.00949224
     108         -0.231694        2.000000        0.00519424        0.05727242        0.14458658        0.06503355        0.00697006        0.00376624        0.04176464        0.00414512        0.00574970
     109         -0.231393        2.000000        0.01193589        0.09851315        0.12220394        0.13799100        0.01274846        0.00620323        0.02068647        0.00347495        0.01401909
     110         -0.230796        2.000000        0.00543241        0.09116651        0.13062026        0.07619270        0.00699361        0.00902464        0.02749438        0.00358778        0.00853472
     111         -0.229537        2.000000        0.01234889        0.06933462        0.16680213        0.07335977        0.01122936        0.00702322        0.04404806        0.00316791        0.00730005
     112         -0.229123        2.000000        0.01281003        0.12173509        0.12921308        0.08469053        0.01240285        0.00627553        0.02006026        0.00462012        0.01429099
     113         -0.227577        2.000000        0.00652268        0.05586370        0.14930052        0.10439721        0.00785651        0.00638230        0.02633281        0.00656128        0.01107168
     114         -0.226808        2.000000        0.00737794        0.07440194        0.11615704        0.09941535        0.00976979        0.00653323        0.02658671        0.00440215        0.00941124
     115         -0.226086        2.000000        0.00829144        0.06277673        0.11651433        0.06418970        0.00985718        0.00466717        0.02211004        0.00439753        0.00675572
     116         -0.225165        2.000000        0.00738826        0.06619675        0.13733702        0.06596144        0.00611788        0.00562378        0.04192357        0.00501985        0.00745520
     117         -0.224589        2.000000        0.00683202        0.08336343        0.11244840        0.10940206        0.00950733        0.00728905        0.02858304        0.00491167        0.00961356
     118         -0.223908        2.000000        0.00547195        0.08782596        0.07944219        0.06054441        0.00804464        0.00349156        0.01633600        0.00446326        0.00860913
     119         -0.222164        2.000000        0.00600119        0.06214632        0.10086237        0.04505945        0.00951159        0.00455962        0.02393333        0.00407471        0.00466867
     120         -0.221684        2.000000        0.00678270        0.14391301        0.12753621        0.10909957        0.01501463        0.00824501        0.01943263        0.00873131        0.01140585
     121         -0.220507        2.000000        0.01753625        0.13913977        0.19327525        0.14453654        0.01877738        0.00771496        0.03780602        0.00938902        0.01725190
     122         -0.219695        2.000000        0.00676585        0.13504436        0.09766167        0.08351441        0.01302120        0.00562876        0.01256819        0.00606896        0.01211481
     123         -0.219070        2.000000        0.00399963        0.08168673        0.07769140        0.07341061        0.01078723        0.00555486        0.01184170        0.00525075        0.00588516
     124         -0.218031        2.000000        0.00382490        0.06252138        0.08232248        0.05273075        0.00666468        0.00519706        0.01749124        0.00467156        0.00566217
     125         -0.217439        2.000000        0.00489123        0.02028582        0.07483164        0.03993324        0.00538054        0.00340389        0.01903039        0.00140834        0.00378535
     126         -0.214945        2.000000        0.00639706        0.11432726        0.11842099        0.02772851        0.01275440        0.00500201        0.02815673        0.00612090        0.00415590
     127         -0.212703        2.000000        0.00356854        0.01420823        0.06692339        0.03375696        0.00484474        0.00275825        0.01435257        0.00196414        0.00264914
     128         -0.211691        2.000000        0.00336219        0.02723255        0.06859797        0.01513635        0.00243289        0.00209990        0.01539530        0.00128002        0.00542512
     129         -0.209401        2.000000        0.00179500        0.01792864        0.05591117        0.02777619        0.00361381        0.00212766        0.01243020        0.00219590        0.00273933
     130         -0.208277        2.000000        0.00457685        0.01268701        0.09290004        0.03884982        0.00633062        0.00275741        0.02359595        0.00275617        0.00269587
     131         -0.205349        2.000000        0.00127294        0.02481060        0.03669609        0.01061971        0.00170443        0.00163913        0.00767755        0.00170197        0.00202259
     132         -0.204428        2.000000        0.00359889        0.01441575        0.08303561        0.01728309        0.00257727        0.00311595        0.02451700        0.00178006        0.00312789
     133         -0.202242        2.000000        0.00163084        0.00918331        0.05359295        0.00903630        0.00154721        0.00157151        0.01711152        0.00163505        0.00128620
     134         -0.199443        2.000000        0.00073756        0.01254453        0.02986341        0.00915730        0.00205305        0.00125765        0.00463393        0.00135066        0.00074490
     135         -0.198647        2.000000        0.00116931        0.00877720        0.02752382        0.00754617        0.00073899        0.00109718        0.00763913        0.00090356        0.00081463
     136         -0.197107        2.000000        0.00049474        0.00805142        0.02235433        0.02060653        0.00092423        0.00078070        0.00513216        0.00095427        0.00050859
     137         -0.196106        2.000000        0.00086417        0.01745833        0.02347064        0.01216676        0.00101779        0.00127018        0.00396979        0.00106160        0.00167855
     138         -0.195269        2.000000        0.00038744        0.02197423        0.01771145        0.01890833        0.00081187        0.00112590        0.00351320        0.00089750        0.00109091
     139         -0.190053        2.000000        0.00195811        0.51217449        0.02350088        0.33942652        0.00872086        0.01636888        0.00252954        0.01313302        0.00883151
     140         -0.188593        2.000000        0.00159296        0.13757521        0.02680122        0.68460602        0.01066558        0.00598915        0.00505065        0.02460891        0.00575291
     141         -0.185685        2.000000        0.00212186        0.63539781        0.01958204        0.23018294        0.00503488        0.02068140        0.00253631        0.01142197        0.01037482
     142         -0.172790        2.000000        0.00160461        0.07743548        0.01024610        0.75774956        0.07148973        0.00299659        0.00149179        0.02404071        0.00894810
     143         -0.168363        2.000000        0.00129540        0.52623265        0.01365161        0.30384505        0.02879150        0.01410961        0.00154973        0.00980689        0.05306037
     144         -0.165731        2.000000        0.00101854        0.42688849        0.01920078        0.37457061        0.03369014        0.01428436        0.00263983        0.01327767        0.04343591