# Projected DOS for atomic kind H at iteration step i = 0, E(Fermi) =    -0.094889 a.u.
#     MO Eigenvalue [a.u.]      Occupation                 s                py                pz                px
       1         -0.558642        2.000000        0.11099183        0.00146255        0.08041358        0.00096976
       2         -0.542779        2.000000        0.14906371        0.00084599        0.11538427        0.00039598
       3         -0.537933        2.000000        0.10360501        0.00540004        0.07205256        0.00757437
       4         -0.534806        2.000000        0.10118571        0.00837944        0.07250621        0.00405845
       5         -0.530654        2.000000        0.10375454        0.00322513        0.07291814        0.00994004
       6         -0.529092        2.000000        0.10668453        0.00599886        0.07101258        0.00649935
       7         -0.527172        2.000000        0.10307665        0.01273111        0.07023515        0.00227537
       8         -0.523191        2.000000        0.11307697        0.00708889        0.08042477        0.00559974
       9         -0.521810        2.000000        0.10778743        0.00471610        0.07188795        0.00992249
      10         -0.517994        2.000000        0.11221146        0.00683109        0.08365626        0.00560149
      11         -0.516741        2.000000        0.11118763        0.00373400        0.08387570        0.00791837
      12         -0.516130        2.000000        0.11042140        0.00533438        0.08069772        0.00736327
      13         -0.512701        2.000000        0.11629769        0.00636883        0.07930676        0.00639244
      14         -0.509880        2.000000        0.11546182        0.00954146        0.07660767        0.00418738
      15         -0.491439        2.000000        0.10807168        0.01013860        0.06052233        0.00563762
      16         -0.487223        2.000000        0.10991254        0.00514638        0.05868864        0.01329108
      17         -0.486148        2.000000        0.11395439        0.00659745        0.05663903        0.01225872
      18         -0.483304        2.000000        0.11253951        0.00956010        0.05800009        0.00752861
      19         -0.481746        2.000000        0.11622840        0.00943681        0.05739129        0.00744980
      20         -0.481070        2.000000        0.11803974        0.00889071        0.05802772        0.00631127
      21         -0.479843        2.000000        0.11941525        0.00647311        0.06073450        0.00652681
      22         -0.477058        2.000000        0.11059854        0.00712282        0.05771213        0.00743446
      23         -0.475526        2.000000        0.11438809        0.01007031        0.05774964        0.00658751
      24         -0.473918        2.000000        0.11088768        0.00852033        0.05841998        0.00583553
      25         -0.470835        2.000000        0.11707674        0.00687907        0.05647007        0.00529173
      26         -0.470574        2.000000        0.11307225        0.00919538        0.05265409        0.00503585
      27         -0.469735        2.000000        0.11864103        0.00510272        0.05931358        0.01150149
      28         -0.468823        2.000000        0.11806313        0.00728609        0.05441719        0.00560565
      29         -0.468117        2.000000        0.11300630        0.00481439        0.05407050        0.00782285
      30         -0.465861        2.000000        0.11533536        0.00538254        0.05449785        0.00801472
      31         -0.465108        2.000000        0.11412381        0.00770536        0.05499304        0.00637074
      32         -0.463774        2.000000        0.11998290        0.00661858        0.05340545        0.00655640
      33         -0.423840        2.000000        0.17103412        0.00387818        0.04132636        0.01649600
      34         -0.420759        2.000000        0.17335571        0.00567494        0.04096321        0.01204908
      35         -0.418677        2.000000        0.18565798        0.01762146        0.03493377        0.00279191
      36         -0.413388        2.000000        0.20033104        0.00820391        0.03838869        0.00538929
      37         -0.411457        2.000000        0.16865117        0.00594684        0.03792758        0.00647616
      38         -0.410387        2.000000        0.19024989        0.00760321        0.03746831        0.00875083
      39         -0.408816        2.000000        0.17593007        0.00726462        0.03580882        0.00678590
      40         -0.408134        2.000000        0.18844149        0.00539924        0.03562849        0.00833110
      41         -0.407277        2.000000        0.17054409        0.00569115        0.03929542        0.00560317
      42         -0.406291        2.000000        0.18118336        0.00480757        0.04537563        0.00546884
      43         -0.405560        2.000000        0.19591496        0.00512165        0.04113018        0.00589515
      44         -0.403160        2.000000        0.19321085        0.00740844        0.03878918        0.00468935
      45         -0.401681        2.000000        0.18749326        0.00456959        0.04100852        0.00613913
      46         -0.398772        2.000000        0.18251765        0.00488013        0.03944376        0.00762173
      47         -0.398116        2.000000        0.19157182        0.00677455        0.03761310        0.00526793
      48         -0.397920        2.000000        0.18610221        0.00614897        0.03792488        0.00453521
      49         -0.395227        2.000000        0.19048862        0.00466384        0.03554243        0.00544116
      50         -0.392798        2.000000        0.18642622        0.00557097        0.03635508        0.00389190
      51         -0.387854        2.000000        0.29851041        0.00428228        0.02433687        0.00377086
      52         -0.381661        2.000000        0.31969765        0.00354892        0.02022848        0.00354191
      53         -0.378841        2.000000        0.31563837        0.00419136        0.01874546        0.00210684
      54         -0.377077        2.000000        0.30943709        0.00304745        0.02460565        0.00375187
      55         -0.375325        2.000000        0.31033897        0.00229088        0.02003298        0.00510330
      56         -0.373088        2.000000        0.31424313        0.00529274        0.01748162        0.00145410
      57         -0.369449        2.000000        0.31507077        0.00191906        0.01874401        0.00459824
      58         -0.366504        2.000000        0.29784430        0.00230518        0.04220591        0.00326144
      59         -0.364012        2.000000        0.29444335        0.00242243        0.04375003        0.00209545
      60         -0.361884        2.000000        0.29097084        0.00239248        0.04651349        0.00319210
      61         -0.360762        2.000000        0.29724144        0.00204853        0.04429036        0.00239235
      62         -0.358381        2.000000        0.29419852        0.00293030        0.04129438        0.00156395
      63         -0.357296        2.000000        0.29262805        0.00190326        0.04205700        0.00183871
      64         -0.353888        2.000000        0.31799436        0.00110595        0.04949205        0.00116395
      65         -0.279529        2.000000        0.23553832        0.00817579        0.00129259        0.02310521
      66         -0.277531        2.000000        0.22781883        0.01137198        0.00186521        0.02828579
      67         -0.273775        2.000000        0.22563709        0.03117599        0.00177027        0.00583623
      68         -0.271083        2.000000        0.20857547        0.01635319        0.00541089        0.02613430
      69         -0.269839        2.000000        0.21673500        0.02691416        0.00443388        0.02004903
      70         -0.268192        2.000000        0.20930496        0.01166930        0.00363714        0.02323664
      71         -0.266598        2.000000        0.22826464        0.01175772        0.00295854        0.02534634
      72         -0.264268        2.000000        0.20903699        0.02046484        0.00428564        0.01523764
      73         -0.263105        2.000000        0.21701265        0.01377342        0.00458084        0.02106439
      74         -0.261743        2.000000        0.21707494        0.02008936        0.00439744        0.01367051
      75         -0.260132        2.000000        0.21852986        0.01460365        0.00382399        0.01921120
      76         -0.259745        2.000000        0.19438261        0.01425801        0.00370859        0.02330073
      77         -0.258150        2.000000        0.23191858        0.01179767        0.00434229        0.01468257
      78         -0.254964        2.000000        0.26592724        0.01533268        0.00697023        0.01004701
      79         -0.253505        2.000000        0.25093895        0.00966119        0.00532349        0.01493458
      80         -0.253164        2.000000        0.24104930        0.01440013        0.00561417        0.01488289
      81         -0.252919        2.000000        0.24567692        0.01760327        0.00758940        0.01050057
      82         -0.252560        2.000000        0.22435455        0.02362685        0.00343676        0.00893865
      83         -0.251872        2.000000        0.24715534        0.01500934        0.00498725        0.01378915
      84         -0.251325        2.000000        0.21438240        0.01576946        0.00513220        0.01423068
      85         -0.250064        2.000000        0.25105599        0.01478645        0.00691667        0.01270302
      86         -0.249447        2.000000        0.24889341        0.01360617        0.00964861        0.01517316
      87         -0.248807        2.000000        0.23977101        0.01072172        0.00803043        0.02175347
      88         -0.247768        2.000000        0.24401900        0.01804939        0.00637062        0.01178994
      89         -0.246923        2.000000        0.21274082        0.01508099        0.00625088        0.01953368
      90         -0.245873        2.000000        0.22107627        0.01207560        0.00778449        0.01696352
      91         -0.245536        2.000000        0.24185619        0.00994738        0.01129405        0.01569887
      92         -0.244685        2.000000        0.25494374        0.01579710        0.01338272        0.01242643
      93         -0.244194        2.000000        0.23097326        0.01890223        0.00754559        0.00816350
      94         -0.242444        2.000000        0.20170335        0.02065275        0.00761225        0.01333568
      95         -0.242310        2.000000        0.21460200        0.01354458        0.00904201        0.01665464
      96         -0.241869        2.000000        0.20679480        0.01765644        0.00568424        0.01818724
      97         -0.241520        2.000000        0.25361745        0.01162670        0.00727122        0.01489561
      98         -0.240709        2.000000        0.27480440        0.01133502        0.01074926        0.01044558
      99         -0.239877        2.000000        0.17189648        0.01626667        0.00566349        0.01693891
     100         -0.238434        2.000000        0.21561599        0.01377581        0.00727159        0.01353855
     101         -0.237947        2.000000        0.19705081        0.01558103        0.00904595        0.02194647
     102         -0.236822        2.000000        0.25494512        0.01185387        0.00774031        0.01062074
     103         -0.236483        2.000000        0.24362407        0.01325157        0.00794707        0.01430167
     104         -0.235489        2.000000        0.26199755        0.01017996        0.00670270        0.01355634
     105         -0.234198        2.000000        0.22323740        0.00918970        0.00579741        0.01625317
     106         -0.233169        2.000000        0.21433082        0.01540426        0.01208687        0.01355366
     107         -0.231773        2.000000        0.19756579        0.01726073        0.00581149        0.01440734
     108         -0.231383        2.000000        0.27721429        0.00823495        0.00828735        0.01086658
     109         -0.230938        2.000000        0.26956120        0.01145906        0.00884758        0.01241407
     110         -0.230594        2.000000        0.23496941        0.01267950        0.00886764        0.01453011
     111         -0.229474        2.000000        0.25165315        0.01320798        0.00662458        0.01329791
     112         -0.228571        2.000000        0.22236305        0.01552879        0.00535222        0.01702839
     113         -0.227511        2.000000        0.23308705        0.01282483        0.00557747        0.01418089
     114         -0.226721        2.000000        0.17889189        0.01806484        0.00890690        0.01367887
     115         -0.226010        2.000000        0.21964457        0.01809786        0.00700464        0.00978640
     116         -0.224838        2.000000        0.16610220        0.01283745        0.00782607        0.01956948
     117         -0.224239        2.000000        0.26417825        0.01083451        0.00733410        0.01321809
     118         -0.222894        2.000000        0.16746167        0.01967595        0.00818770        0.01748748
     119         -0.221785        2.000000        0.21568176        0.01328041        0.00710784        0.01700295
     120         -0.221266        2.000000        0.17557861        0.02389451        0.00720622        0.01088041
     121         -0.220030        2.000000        0.22270028        0.01281116        0.00700454        0.01263917
     122         -0.219764        2.000000        0.23118161        0.01654543        0.00515201        0.01264800
     123         -0.219318        2.000000        0.19799621        0.01603937        0.00576824        0.01689110
     124         -0.217662        2.000000        0.23470737        0.01639707        0.00676550        0.01248606
     125         -0.216731        2.000000        0.20097725        0.01360394        0.00635642        0.01606962
     126         -0.214006        2.000000        0.24576306        0.01338354        0.00738431        0.01420350
     127         -0.212536        2.000000        0.24457739        0.01088042        0.00731120        0.01850041
     128         -0.212156        2.000000        0.27848296        0.01227448        0.00944263        0.01037228
     129         -0.208999        2.000000        0.21034652        0.01282686        0.00693848        0.01699045
     130         -0.208168        2.000000        0.30935210        0.00833715        0.00870478        0.01204797
     131         -0.205265        2.000000        0.18316750        0.02145915        0.00729042        0.01340852
     132         -0.204062        2.000000        0.25678658        0.01337432        0.00981918        0.01019019
     133         -0.201200        2.000000        0.26592561        0.01311772        0.01261674        0.01242095
     134         -0.198790        2.000000        0.21682271        0.01307742        0.01221088        0.01853396
     135         -0.197873        2.000000        0.14275087        0.02356286        0.00818096        0.01818585
     136         -0.197674        2.000000        0.19387984        0.02092923        0.01123301        0.01679445
     137         -0.196563        2.000000        0.16840587        0.01887578        0.01209299        0.01744081
     138         -0.194766        2.000000        0.16282606        0.02368053        0.01033208        0.01563109
     139         -0.190907        2.000000        0.01448307        0.02884735        0.00133711        0.01239565
     140         -0.189857        2.000000        0.02665665        0.00365376        0.00184682        0.03722181
     141         -0.186449        2.000000        0.00959906        0.03257895        0.00130006        0.01057952
     142         -0.174301        2.000000        0.00303259        0.00371579        0.00081108        0.03571146
     143         -0.169184        2.000000        0.00283504        0.02679594        0.00100397        0.01439106
     144         -0.166629        2.000000        0.00644776        0.02423754        0.00211230        0.01743866
     145         -0.165696        2.000000        0.00326687        0.03173669        0.00100527        0.01041618
     146         -0.165138        2.000000        0.00668334        0.03186910        0.00130922        0.00907024
     147         -0.163503        2.000000        0.00792421        0.00289220        0.00210943        0.04951731
     148         -0.160061        2.000000        0.00240498        0.01165845        0.00105699        0.03090519
     149         -0.159501        2.000000        0.00904156        0.03845898        0.00326373        0.01297630
     150         -0.156352        2.000000        0.01319490        0.03873959        0.00465791        0.01258636
     151         -0.141618        2.000000        0.00258489        0.00878379        0.00168218        0.04190084
     152         -0.137165        2.000000        0.00439353        0.03113200        0.00232668        0.01849201
     153         -0.136590        2.000000        0.00157705        0.00118137        0.00064320        0.03700790
     154         -0.135854        2.000000        0.00386975        0.01757172        0.00170502        0.03301791
     155         -0.133221        2.000000        0.00439172        0.03599133        0.00215396        0.01246428
     156         -0.133002        2.000000        0.00295762        0.03905423        0.00113523        0.00213075
     157         -0.129564        2.000000        0.00293550        0.02171361        0.00219547        0.02838023
     158         -0.127380        2.000000        0.00434821        0.03770704        0.00204027        0.01474061
     159         -0.098993        2.000000        0.00309225        0.00119269        0.00111261        0.04709505
     160         -0.094889        2.000000        0.00398179        0.04680196        0.00087123        0.00153298
     161         -0.023640        0.000000        0.02727094        0.00192372        0.02079034        0.00169847
     162         -0.018294        0.000000        0.01381274        0.00331085        0.01016588        0.00264972
     163         -0.015836        0.000000        0.00525546        0.01064126        0.01731851        0.00829530
     164         -0.013762        0.000000        0.00524831        0.01109597        0.01664266        0.01232803
     165         -0.011034        0.000000        0.00472212        0.00958996        0.01556146        0.01472585
     166         -0.003715        0.000000        0.01095847        0.02086092        0.01633856        0.01379739
     167         -0.001360        0.000000        0.01362446        0.01944212        0.01438315        0.01442092
     168         -0.000566        0.000000        0.01163316        0.01935137        0.01731033        0.01861933
     169          0.001413        0.000000        0.01517372        0.01079980        0.01712780        0.02673408
     170          0.002812        0.000000        0.01479133        0.01947616        0.01582522        0.02442975
     171          0.003769        0.000000        0.01279825        0.01428203        0.01341751        0.02289681
     172          0.005105        0.000000        0.01401746        0.01170075        0.02081900        0.02434722
     173          0.007545        0.000000        0.01586907        0.02595703        0.02059413        0.01505009
     174          0.009409        0.000000        0.01276610        0.02553892        0.01681953        0.01091504
     175          0.017458        0.000000        0.00969448        0.01894825        0.02223187        0.02768468
     176          0.022851        0.000000        0.01176027        0.02958152        0.02112760        0.02417534
     177          0.023221        0.000000        0.00940972        0.03759428        0.02308867        0.01680570
     178          0.026790        0.000000        0.01033624        0.02011157        0.02343319        0.02918942
     179          0.028677        0.000000        0.01072360        0.02305196        0.02353144        0.03382036
     180          0.032068        0.000000        0.01789454        0.02859242        0.03326078        0.01943240
     181          0.048454        0.000000        0.05918024        0.05429401        0.05651818        0.12445125
     182          0.049049        0.000000        0.04228446        0.07364301        0.04657859        0.06948281
     183          0.053795        0.000000        0.02890961        0.07035335        0.03234269        0.03456245
     184          0.055209        0.000000        0.03024083        0.03336128        0.02770115        0.07254545
     185          0.057815        0.000000        0.07049988        0.11035675        0.06674116        0.09207173
     186          0.061556        0.000000        0.07535162        0.09183871        0.06617652        0.08248080
     187          0.068472        0.000000        0.06728184        0.06926050        0.06653435        0.09873922
     188          0.070878        0.000000        0.07308105        0.07966263        0.06252403        0.07829798
     189          0.072306        0.000000        0.06882869        0.10290347        0.05685131        0.06625821
     190          0.073877        0.000000        0.06699603        0.05905905        0.06429391        0.11502298
     191          0.076218        0.000000        0.05598878        0.06466413        0.05532289        0.09579367
     192          0.076895        0.000000        0.06135591        0.08302569        0.04932042        0.08145360
     193          0.081170        0.000000        0.05893926        0.14043854        0.05767272        0.03562492
     194          0.082604        0.000000        0.06576755        0.06406981        0.06341536        0.11503992
     195          0.083283        0.000000        0.06077315        0.06805257        0.06381701        0.09321644
     196          0.084846        0.000000        0.06038839        0.09692141        0.06634665        0.04599656
     197          0.085931        0.000000        0.04818263        0.13415264        0.07336997        0.05259337
     198          0.087773        0.000000        0.05320085        0.11185834        0.07395408        0.06058384
     199          0.090155        0.000000        0.05143632        0.06245829        0.04165734        0.05998019
     200          0.091225        0.000000        0.05525972        0.06697835        0.04750392        0.06613820
     201          0.094729        0.000000        0.07137004        0.06925217        0.04601554        0.05160455
     202          0.096076        0.000000        0.04245231        0.02965543        0.02885500        0.05617517
     203          0.097268        0.000000        0.07708744        0.06143111        0.05382634        0.09098450
     204          0.098309        0.000000        0.06311326        0.05824452        0.04598630        0.07443034
     205          0.099578        0.000000        0.08765069        0.04353709        0.06315070        0.06475108
     206          0.101006        0.000000        0.08528764        0.07132806        0.04814789        0.04026541
     207          0.101752        0.000000        0.08010190        0.06539603        0.04652607        0.07433523
     208          0.101999        0.000000        0.11950710        0.04594914        0.06755710        0.04506083
     209          0.103211        0.000000        0.07495999        0.06416475        0.05565954        0.07365040
     210          0.104377        0.000000        0.09250069        0.05372718        0.05999677        0.07350130
