# Projected DOS for atomic kind Ge at iteration step i = 0, E(Fermi) =    -0.094530 a.u.
#     MO Eigenvalue [a.u.]      Occupation                 s                py                pz                px               d-2               d-1                d0               d+1               d+2
       1         -0.558373        2.000000        0.75091824        0.00564786        0.01989925        0.00440955        0.00066071        0.00048772        0.00734363        0.00059988        0.00093971
       2         -0.543279        2.000000        0.01120426        0.00012112        0.00325926        0.00020603        0.00003358        0.00001173        0.00063871        0.00005042        0.00002966
       3         -0.537797        2.000000        0.65297693        0.03580512        0.01241427        0.07549309        0.00711333        0.00205736        0.00279234        0.00427545        0.00366284
       4         -0.534513        2.000000        0.65585723        0.08362656        0.01394585        0.03047389        0.00306217        0.00411113        0.00251416        0.00180758        0.00851426
       5         -0.530516        2.000000        0.64802645        0.03273655        0.00823567        0.08229561        0.00810156        0.00172633        0.00326179        0.00497643        0.00363335
       6         -0.529060        2.000000        0.63465189        0.04622679        0.00980256        0.06327381        0.00665953        0.00240175        0.00251575        0.00343639        0.00485899
       7         -0.527063        2.000000        0.64164930        0.10254902        0.00829685        0.00970116        0.00170628        0.00550854        0.00325012        0.00086701        0.01076608
       8         -0.523967        2.000000        0.04546383        0.00499702        0.00203409        0.00284504        0.00028960        0.00034548        0.00036413        0.00019284        0.00065132
       9         -0.521687        2.000000        0.59843807        0.03303557        0.00691444        0.07896680        0.00768028        0.00177295        0.00256186        0.00436981        0.00330662
      10         -0.518269        2.000000        0.02207584        0.00200084        0.00202575        0.00156791        0.00023994        0.00017546        0.00038283        0.00012877        0.00030808
      11         -0.517208        2.000000        0.04190364        0.00212892        0.00181632        0.00537643        0.00062250        0.00015516        0.00040708        0.00036236        0.00024580
      12         -0.516871        2.000000        0.00833458        0.00056784        0.00150409        0.00060020        0.00012241        0.00005922        0.00025235        0.00010584        0.00010221
      13         -0.513080        2.000000        0.00802095        0.00044312        0.00151400        0.00071100        0.00010619        0.00008033        0.00020844        0.00006380        0.00010255
      14         -0.510146        2.000000        0.00412453        0.00054261        0.00090671        0.00023052        0.00003708        0.00004967        0.00015394        0.00003576        0.00008562
      15         -0.491332        2.000000        0.54751913        0.13617165        0.00230243        0.07918045        0.01259818        0.00844824        0.00086425        0.00579217        0.01638203
      16         -0.487211        2.000000        0.54228191        0.05867301        0.00249619        0.15524192        0.01888299        0.00522766        0.00068621        0.00943356        0.01193303
      17         -0.485580        2.000000        0.54605692        0.07042510        0.00171810        0.13432630        0.01806240        0.00545447        0.00034372        0.01103415        0.01485044
      18         -0.483292        2.000000        0.54661411        0.09379375        0.00210085        0.10852534        0.01886691        0.00695845        0.00079020        0.00776708        0.01388625
      19         -0.481586        2.000000        0.51843290        0.12316516        0.00124250        0.08287329        0.01330908        0.00781883        0.00057313        0.00500663        0.01592989
      20         -0.481210        2.000000        0.54551754        0.12377136        0.00155444        0.07039186        0.01192868        0.00882246        0.00039089        0.00477258        0.02383643
      21         -0.479383        2.000000        0.54910401        0.09565067        0.00267389        0.09662322        0.02008428        0.00619791        0.00086264        0.00693345        0.01776311
      22         -0.477571        2.000000        0.05462189        0.01495744        0.00068107        0.00620752        0.00093564        0.00082056        0.00009772        0.00069349        0.00240669
      23         -0.475811        2.000000        0.40482332        0.09965898        0.00110495        0.05828126        0.00926131        0.00567480        0.00035414        0.00342325        0.01726256
      24         -0.474521        2.000000        0.12211268        0.02546630        0.00076930        0.02189595        0.00338854        0.00162334        0.00015354        0.00137339        0.00423823
      25         -0.471471        2.000000        0.01991311        0.00329148        0.00043788        0.00454085        0.00064675        0.00027533        0.00005097        0.00026051        0.00063869
      26         -0.470728        2.000000        0.01493672        0.00208062        0.00039074        0.00304904        0.00059222        0.00015412        0.00004568        0.00023735        0.00045033
      27         -0.469260        2.000000        0.44887807        0.05129071        0.00215854        0.10711473        0.01963043        0.00334958        0.00057366        0.00721909        0.01048346
      28         -0.468818        2.000000        0.07587311        0.00833875        0.00071627        0.01804786        0.00326219        0.00064938        0.00013211        0.00146951        0.00169494
      29         -0.468361        2.000000        0.00420212        0.00067956        0.00028956        0.00115338        0.00016885        0.00004672        0.00003082        0.00006997        0.00013791
      30         -0.466251        2.000000        0.00561021        0.00088261        0.00029506        0.00109665        0.00019994        0.00009645        0.00003302        0.00010482        0.00020844
      31         -0.466007        2.000000        0.01679769        0.00188397        0.00040309        0.00461934        0.00065673        0.00014205        0.00004943        0.00031484        0.00038196
      32         -0.463710        2.000000        0.00214414        0.00055666        0.00048354        0.00069415        0.00007581        0.00004875        0.00003959        0.00006281        0.00005465
      33         -0.423724        2.000000        0.37565465        0.07522815        0.03573028        0.21273184        0.01116999        0.00406883        0.00820933        0.01824464        0.00348216
      34         -0.420384        2.000000        0.37524043        0.08511738        0.04105634        0.19057553        0.00951138        0.00612980        0.00882171        0.01634299        0.00532060
      35         -0.418332        2.000000        0.33464947        0.21303020        0.05478823        0.01905100        0.00195546        0.01870239        0.00575533        0.00393335        0.01127720
      36         -0.414066        2.000000        0.36176043        0.09975683        0.06570927        0.09902645        0.01420531        0.01206455        0.00767042        0.00981478        0.00841374
      37         -0.411979        2.000000        0.03577285        0.01271742        0.00495521        0.00982874        0.00092216        0.00131397        0.00081455        0.00096442        0.00134107
      38         -0.410301        2.000000        0.37896342        0.11286884        0.05319478        0.10344812        0.01255867        0.01204488        0.00842960        0.01037394        0.01357773
      39         -0.409077        2.000000        0.17196369        0.05099522        0.02758470        0.04340993        0.00538933        0.00549121        0.00442715        0.00551898        0.00722608
      40         -0.408292        2.000000        0.20166734        0.05324995        0.03344144        0.05272412        0.00685292        0.00587792        0.00433061        0.00699540        0.00761282
      41         -0.407566        2.000000        0.15348102        0.04155918        0.02540045        0.04654764        0.00473963        0.00496403        0.00390892        0.00497579        0.00579234
      42         -0.406274        2.000000        0.30813266        0.10606365        0.03790005        0.08515835        0.00989969        0.00946486        0.00943205        0.00768662        0.01305150
      43         -0.404640        2.000000        0.38204895        0.10155608        0.04806388        0.12134201        0.01594930        0.00827590        0.01192049        0.01063094        0.01154794
      44         -0.402866        2.000000        0.27615080        0.08055163        0.03350444        0.08173221        0.00835286        0.00786355        0.00902962        0.00709866        0.01287067
      45         -0.401821        2.000000        0.14081126        0.03353102        0.02133679        0.04917203        0.00610147        0.00326144        0.00389221        0.00502711        0.00388011
      46         -0.399202        2.000000        0.02391933        0.00676117        0.00436885        0.00770077        0.00091109        0.00085977        0.00059930        0.00062057        0.00072183
      47         -0.398348        2.000000        0.00918024        0.00339626        0.00157905        0.00304493        0.00025879        0.00026100        0.00023524        0.00023249        0.00042066
      48         -0.397612        2.000000        0.02978150        0.00956299        0.00709272        0.00810763        0.00089852        0.00077328        0.00088333        0.00075508        0.00122317
      49         -0.395522        2.000000        0.00751836        0.00188962        0.00315417        0.00256086        0.00024957        0.00023416        0.00032807        0.00019262        0.00025641
      50         -0.393302        2.000000        0.01406640        0.00332557        0.00802283        0.00369454        0.00044289        0.00037422        0.00050112        0.00043405        0.00038341
      51         -0.387382        2.000000        0.18355581        0.01933923        0.20022268        0.02844016        0.00386799        0.00460606        0.00840723        0.00625689        0.00293979
      52         -0.381520        2.000000        0.20042535        0.03025254        0.21477277        0.02421779        0.00426438        0.00571738        0.01092285        0.00559647        0.00438252
      53         -0.379117        2.000000        0.16277139        0.02444718        0.19818959        0.01413237        0.00189979        0.00597280        0.00943602        0.00301085        0.00454971
      54         -0.376181        2.000000        0.21801525        0.02310087        0.19528037        0.03756513        0.00603081        0.00477571        0.01221151        0.00776916        0.00354166
      55         -0.375318        2.000000        0.17190540        0.01830304        0.15688963        0.03474418        0.00469057        0.00345371        0.01155282        0.00609847        0.00310710
      56         -0.372712        2.000000        0.15292846        0.03202961        0.15019779        0.00993439        0.00118399        0.00678098        0.01029678        0.00227648        0.00507964
      57         -0.370156        2.000000        0.15737730        0.01827269        0.16684158        0.02824514        0.00463502        0.00352648        0.01104340        0.00499689        0.00258754
      58         -0.366486        2.000000        0.08047075        0.01235430        0.08848981        0.01034292        0.00134068        0.00196585        0.00434940        0.00122151        0.00178434
      59         -0.364019        2.000000        0.10123397        0.01626100        0.07473246        0.01593351        0.00253940        0.00277182        0.00617178        0.00247735        0.00278083
      60         -0.361724        2.000000        0.11720602        0.01508645        0.08952396        0.02234487        0.00326751        0.00298048        0.00668849        0.00397619        0.00219511
      61         -0.360506        2.000000        0.08359371        0.01180731        0.06303182        0.01408497        0.00216828        0.00216536        0.00498399        0.00244536        0.00197870
      62         -0.358184        2.000000        0.05861247        0.00979108        0.04792508        0.00910222        0.00138935        0.00166428        0.00365365        0.00147544        0.00155593
      63         -0.357600        2.000000        0.06364772        0.01333771        0.04379511        0.00832183        0.00124873        0.00185105        0.00402451        0.00152300        0.00188042
      64         -0.353908        2.000000        0.08444692        0.00404101        0.14731026        0.00474656        0.00073346        0.00078836        0.00536427        0.00122848        0.00042490
      65         -0.280275        2.000000        0.00093431        0.00296987        0.00665278        0.00317476        0.00009986        0.00016509        0.00052157        0.00032718        0.00014768
      66         -0.277600        2.000000        0.00251356        0.01015419        0.02319558        0.01360587        0.00024689        0.00046641        0.00133322        0.00038931        0.00057437
      67         -0.273810        2.000000        0.00220252        0.01209557        0.03247006        0.01168771        0.00048121        0.00081228        0.00185273        0.00034897        0.00061657
      68         -0.271300        2.000000        0.00773211        0.02778793        0.10338276        0.05860831        0.00251600        0.00094893        0.00462429        0.00095546        0.00281691
      69         -0.269704        2.000000        0.00912608        0.12854920        0.18109655        0.05348337        0.00383585        0.00071523        0.00670202        0.00069641        0.00138864
      70         -0.268431        2.000000        0.00398513        0.02121243        0.06305697        0.03719600        0.00078900        0.00055572        0.00191157        0.00045513        0.00133774
      71         -0.266567        2.000000        0.00853409        0.07325607        0.22038716        0.13127541        0.00088382        0.00102161        0.00738147        0.00120447        0.00260661
      72         -0.264413        2.000000        0.00510710        0.04278870        0.11678455        0.05634984        0.00142095        0.00095896        0.00490177        0.00056274        0.00164653
      73         -0.263219        2.000000        0.00475910        0.06403418        0.16744144        0.04954220        0.00256781        0.00081689        0.00723284        0.00100759        0.00106172
      74         -0.262045        2.000000        0.00330269        0.05987544        0.15245087        0.04351065        0.00097969        0.00080559        0.00611499        0.00056707        0.00060658
      75         -0.260476        2.000000        0.00477709        0.03788641        0.12333142        0.05892279        0.00107059        0.00071995        0.00404003        0.00120919        0.00188586
      76         -0.259970        2.000000        0.00471701        0.02740032        0.07104862        0.02907677        0.00094774        0.00056102        0.00266019        0.00035156        0.00183028
      77         -0.258104        2.000000        0.00306298        0.03217381        0.08226918        0.02513880        0.00104140        0.00027706        0.00540553        0.00071527        0.00138925
      78         -0.255239        2.000000        0.00522539        0.04542977        0.17750634        0.05177425        0.00191494        0.00136098        0.01079714        0.00146826        0.00311236
      79         -0.253588        2.000000        0.00707753        0.05301534        0.11219148        0.02595015        0.00196276        0.00071453        0.00565730        0.00098063        0.00308686
      80         -0.253470        2.000000        0.00669412        0.03610368        0.11710124        0.03821612        0.00202804        0.00125324        0.01304808        0.00124855        0.00121148
      81         -0.252730        2.000000        0.00867488        0.06958781        0.17680441        0.06119399        0.00279429        0.00192502        0.01203756        0.00120010        0.00538611
      82         -0.252548        2.000000        0.00572893        0.04066244        0.09386380        0.02325655        0.00234290        0.00103095        0.00572885        0.00066250        0.00236964
      83         -0.251799        2.000000        0.00221985        0.01502725        0.04008278        0.01472447        0.00080105        0.00057730        0.00255656        0.00061860        0.00073310
      84         -0.251248        2.000000        0.01017255        0.08276898        0.20355236        0.06401159        0.00453289        0.00139270        0.00705426        0.00096279        0.00553469
      85         -0.249637        2.000000        0.01323734        0.12944255        0.26350782        0.06400624        0.00629528        0.00147472        0.02264758        0.00349770        0.00404632
      86         -0.249276        2.000000        0.01387487        0.05491534        0.15754877        0.05860284        0.00493282        0.00190700        0.01331238        0.00112623        0.00321066
      87         -0.248935        2.000000        0.00838591        0.06447117        0.15179250        0.05806180        0.00332429        0.00162214        0.01027609        0.00133997        0.00301089
      88         -0.247686        2.000000        0.00407381        0.04079850        0.12213934        0.02392858        0.00271261        0.00172157        0.00746508        0.00075521        0.00125670
      89         -0.246595        2.000000        0.00758753        0.03340594        0.14403974        0.03490374        0.00247246        0.00105303        0.01343077        0.00136753        0.00302734
      90         -0.246052        2.000000        0.00611115        0.04063498        0.16117051        0.03927352        0.00262836        0.00093542        0.01000044        0.00089311        0.00289113
      91         -0.245633        2.000000        0.01216739        0.04917519        0.21374204        0.09639236        0.00737785        0.00178761        0.01326767        0.00240155        0.00272918
      92         -0.244379        2.000000        0.01233199        0.03800985        0.08531171        0.02920616        0.00221122        0.00159771        0.01313664        0.00149405        0.00238368
      93         -0.244216        2.000000        0.00702215        0.02601483        0.10673158        0.03783894        0.00225103        0.00138321        0.00883535        0.00117635        0.00216904
      94         -0.242837        2.000000        0.00389319        0.02235286        0.10049753        0.03146996        0.00210496        0.00135994        0.00877477        0.00161577        0.00121780
      95         -0.242489        2.000000        0.00931287        0.04892327        0.13546411        0.03812349        0.00175859        0.00129233        0.01239715        0.00130208        0.00444234
      96         -0.241849        2.000000        0.00548224        0.05093477        0.16849684        0.06649225        0.00206100        0.00277314        0.01478543        0.00202923        0.00371863
      97         -0.241435        2.000000        0.00871822        0.07802327        0.18954633        0.05986866        0.00283343        0.00270297        0.01659439        0.00307829        0.00364379
      98         -0.240705        2.000000        0.01139225        0.05067109        0.26469755        0.07057248        0.00647316        0.00238367        0.01829005        0.00196460        0.00312897
      99         -0.240199        2.000000        0.00318001        0.02115438        0.07222858        0.01759652        0.00113485        0.00131278        0.00693145        0.00106665        0.00088108
     100         -0.238725        2.000000        0.00510073        0.03630351        0.16403250        0.05108285        0.00150019        0.00317837        0.01937738        0.00240149        0.00200742
     101         -0.238015        2.000000        0.01590081        0.05068385        0.14905783        0.12207814        0.00598904        0.00180138        0.01229475        0.00242136        0.00535676
     102         -0.236821        2.000000        0.01286027        0.07306492        0.12645704        0.04651170        0.00286121        0.00136568        0.01539595        0.00309905        0.00421365
     103         -0.236432        2.000000        0.00578605        0.04926345        0.14480724        0.09888719        0.00240722        0.00298261        0.01692681        0.00212667        0.00331134
     104         -0.235682        2.000000        0.00668045        0.05170665        0.17079363        0.08316138        0.00279068        0.00318764        0.02035075        0.00289922        0.00265861
     105         -0.234339        2.000000        0.01364742        0.04286728        0.14484149        0.08700459        0.00471280        0.00306134        0.01188513        0.00136630        0.00317956
     106         -0.233115        2.000000        0.01330703        0.06272681        0.15127816        0.09983385        0.00448881        0.00228768        0.02265235        0.00280057        0.00344800
     107         -0.231779        2.000000        0.00982129        0.05814660        0.11624138        0.04410268        0.00455917        0.00130945        0.01059727        0.00123056        0.00412875
     108         -0.231359        2.000000        0.00505129        0.04382165        0.17770843        0.06428484        0.00155285        0.00296728        0.02034166        0.00402553        0.00270579
     109         -0.230655        2.000000        0.00679631        0.07048392        0.15166740        0.04363023        0.00458831        0.00210168        0.01952241        0.00267546        0.00201698
     110         -0.230487        2.000000        0.00866488        0.06098706        0.16865691        0.06603376        0.00364134        0.00308998        0.02084874        0.00174548        0.00268302
     111         -0.229590        2.000000        0.01272071        0.06965223        0.16851751        0.04635798        0.00332210        0.00329808        0.02065621        0.00288347        0.00631258
     112         -0.228327        2.000000        0.02131487        0.08698001        0.22848665        0.11649712        0.01033315        0.00290144        0.02165770        0.00485433        0.00460497
     113         -0.227432        2.000000        0.01193533        0.11404146        0.13319546        0.09149987        0.00430638        0.00198155        0.01367018        0.00263524        0.00639619
     114         -0.226611        2.000000        0.02149175        0.08918920        0.15542509        0.09572967        0.00687385        0.00187885        0.01802641        0.00234671        0.00591840
     115         -0.225915        2.000000        0.03562400        0.18274994        0.19430418        0.07003082        0.00526316        0.00330305        0.02192782        0.00217787        0.01505223
     116         -0.224723        2.000000        0.02687382        0.07108572        0.19426885        0.13388940        0.01059433        0.00242751        0.01581882        0.00367900        0.00630669
     117         -0.224060        2.000000        0.00858443        0.07925070        0.14798426        0.06082300        0.00353469        0.00233988        0.01859107        0.00346266        0.00411872
     118         -0.222599        2.000000        0.03180790        0.14510464        0.15903303        0.14507039        0.01380017        0.00316291        0.01441881        0.00218550        0.00931371
     119         -0.221911        2.000000        0.00989867        0.10948414        0.12873411        0.07273464        0.00655899        0.00302335        0.01356253        0.00293167        0.00428757
     120         -0.220994        2.000000        0.02363459        0.11972708        0.14110285        0.08027461        0.00497146        0.00234880        0.01286437        0.00219228        0.01132997
     121         -0.220018        2.000000        0.01225513        0.07129284        0.19378273        0.09727407        0.00443367        0.00338694        0.02057448        0.00339934        0.00609447
     122         -0.219910        2.000000        0.01076191        0.05121969        0.13580911        0.03303772        0.00421459        0.00198603        0.01355791        0.00230106        0.00475218
     123         -0.219381        2.000000        0.02203223        0.13937957        0.19599940        0.16669717        0.01055009        0.00388676        0.02244337        0.00489757        0.00629016
     124         -0.217598        2.000000        0.01702592        0.12164181        0.23531039        0.09569039        0.00751439        0.00462405        0.02197337        0.00517555        0.00580361
     125         -0.216443        2.000000        0.02707007        0.13871464        0.18879291        0.15243119        0.00966449        0.00222062        0.01660596        0.00374346        0.01160659
     126         -0.213695        2.000000        0.01587478        0.09809088        0.19349953        0.16506922        0.00748651        0.00618005        0.02988562        0.00261561        0.00902648
     127         -0.212849        2.000000        0.01678093        0.09308189        0.21253339        0.12148471        0.01080803        0.00426401        0.03200426        0.00466140        0.00542375
     128         -0.212112        2.000000        0.02018542        0.10633542        0.24806574        0.12695330        0.00886857        0.00362690        0.04155647        0.00550506        0.00688698
     129         -0.208853        2.000000        0.02822782        0.13786494        0.21079206        0.19153973        0.01307104        0.00487605        0.02323918        0.00626626        0.01357700
     130         -0.208062        2.000000        0.01293493        0.07602890        0.22806877        0.09459403        0.00661845        0.00298930        0.03914114        0.00498594        0.00701420
     131         -0.205264        2.000000        0.01848459        0.22836585        0.19886082        0.17920388        0.01233662        0.00787896        0.02068333        0.00692765        0.01408379
     132         -0.204124        2.000000        0.01669600        0.14212080        0.19728727        0.12390918        0.00517662        0.00487326        0.03062313        0.00773400        0.01351099
     133         -0.200911        2.000000        0.02059797        0.12187651        0.24584133        0.13864061        0.00944582        0.00577500        0.03207874        0.00807073        0.01293144
     134         -0.198732        2.000000        0.01823077        0.09418546        0.24714854        0.16357260        0.01172994        0.00605820        0.04390750        0.00621973        0.00667101
     135         -0.198130        2.000000        0.02277403        0.17617690        0.23624606        0.19194396        0.00764002        0.00804637        0.02199185        0.00874992        0.02287980
     136         -0.197415        2.000000        0.02307096        0.33193108        0.15185454        0.23806013        0.01698318        0.00930467        0.01276053        0.01098444        0.01714039
     137         -0.196643        2.000000        0.01956932        0.25418323        0.19735760        0.15882085        0.01819263        0.00940796        0.02352022        0.00815854        0.00780822
     138         -0.194617        2.000000        0.01993368        0.26096493        0.19553416        0.18570312        0.01844574        0.01433566        0.01918273        0.00926795        0.01029587
     139         -0.191396        2.000000        0.00077516        0.01059581        0.01035792        0.00609798        0.00048472        0.00047509        0.00127963        0.00036208        0.00074249
     140         -0.190399        2.000000        0.00115799        0.00640047        0.01358825        0.00709875        0.00061209        0.00036858        0.00214018        0.00022774        0.00066835
     141         -0.186861        2.000000        0.00021995        0.00201939        0.00300392        0.00176031        0.00015258        0.00010235        0.00044660        0.00006237        0.00012091
     142         -0.174952        2.000000        0.00004442        0.00047627        0.00114708        0.00040225        0.00002504        0.00002436        0.00013524        0.00001823        0.00004247
     143         -0.169572        2.000000        0.00003743        0.00035483        0.00068085        0.00113595        0.00003304        0.00002558        0.00003668        0.00004884        0.00002598
     144         -0.167117        2.000000        0.00008025        0.00140633        0.00098855        0.00386257        0.00007992        0.00006242        0.00008862        0.00009368        0.00006327