# Projected DOS for atomic kind Ge at iteration step i = 0, E(Fermi) =    -0.093755 a.u.
#     MO Eigenvalue [a.u.]      Occupation                 s                py                pz                px               d-2               d-1                d0               d+1               d+2
       1         -0.558054        2.000000        0.75058361        0.00419459        0.01985893        0.00420892        0.00061169        0.00043363        0.00757788        0.00055211        0.00074069
       2         -0.545933        2.000000        0.01433789        0.00014623        0.00311324        0.00027565        0.00003417        0.00001558        0.00069242        0.00004346        0.00002965
       3         -0.536645        2.000000        0.65320355        0.07802724        0.01250814        0.03697023        0.00382766        0.00394264        0.00271789        0.00236883        0.00831089
       4         -0.535349        2.000000        0.65135460        0.03321051        0.01328805        0.07802012        0.00731101        0.00197870        0.00267283        0.00408889        0.00312579
       5         -0.530670        2.000000        0.64475247        0.03614881        0.00869167        0.07830944        0.00775581        0.00199512        0.00320526        0.00449737        0.00398797
       6         -0.529023        2.000000        0.49521114        0.03912823        0.00626272        0.04803420        0.00467900        0.00188437        0.00213959        0.00282779        0.00400055
       7         -0.527116        2.000000        0.49221799        0.06928302        0.00705248        0.01752225        0.00232781        0.00353444        0.00236963        0.00099454        0.00681791
       8         -0.526772        2.000000        0.28091555        0.04148401        0.00493793        0.00684149        0.00094696        0.00232111        0.00156178        0.00062015        0.00486463
       9         -0.523135        2.000000        0.20116688        0.01532869        0.00265533        0.02103643        0.00207795        0.00082336        0.00097602        0.00136715        0.00165746
      10         -0.521666        2.000000        0.37997937        0.02165496        0.00623590        0.04986188        0.00483615        0.00116929        0.00189933        0.00254352        0.00202601
      11         -0.520447        2.000000        0.11497845        0.00620459        0.00314484        0.01401476        0.00154547        0.00040416        0.00078118        0.00100700        0.00077667
      12         -0.518418        2.000000        0.04403781        0.00374051        0.00238520        0.00382299        0.00045043        0.00025382        0.00052236        0.00030108        0.00050573
      13         -0.515301        2.000000        0.01182133        0.00081964        0.00135069        0.00099390        0.00012648        0.00012196        0.00023918        0.00007149        0.00016383
      14         -0.512794        2.000000        0.00412492        0.00058430        0.00084993        0.00017453        0.00003274        0.00004813        0.00014522        0.00002990        0.00009461
      15         -0.490477        2.000000        0.54703144        0.13332560        0.00229773        0.08034567        0.01280609        0.00871880        0.00082886        0.00605224        0.01623682
      16         -0.488656        2.000000        0.54374769        0.06725182        0.00198621        0.14603994        0.01851994        0.00585785        0.00075769        0.00859541        0.01343171
      17         -0.484268        2.000000        0.54294677        0.06657989        0.00140142        0.13365384        0.02207450        0.00438708        0.00045778        0.01022668        0.01267632
      18         -0.483142        2.000000        0.51042483        0.10370619        0.00281748        0.10008425        0.01393526        0.00749644        0.00045027        0.00752838        0.01275582
      19         -0.482011        2.000000        0.25495912        0.06234687        0.00054074        0.03727132        0.00626132        0.00345194        0.00019476        0.00258732        0.00819636
      20         -0.480283        2.000000        0.37891647        0.10409056        0.00152586        0.03537964        0.00549531        0.00663162        0.00040245        0.00286768        0.01841913
      21         -0.479553        2.000000        0.52657233        0.09643151        0.00122901        0.09299327        0.01526065        0.00790804        0.00051351        0.00544124        0.02174759
      22         -0.478488        2.000000        0.54618488        0.10565492        0.00198882        0.08711071        0.01691538        0.00686232        0.00054987        0.00608454        0.02157226
      23         -0.477717        2.000000        0.35426749        0.07116444        0.00136512        0.07238333        0.00992053        0.00391588        0.00025197        0.00419041        0.01084850
      24         -0.476797        2.000000        0.14754709        0.02350940        0.00054223        0.03611550        0.00439442        0.00136915        0.00010766        0.00235986        0.00385514
      25         -0.475021        2.000000        0.03522143        0.00587663        0.00023529        0.00791923        0.00112310        0.00033985        0.00004150        0.00057562        0.00107601
      26         -0.473337        2.000000        0.00818542        0.00193411        0.00034748        0.00123282        0.00021579        0.00014874        0.00003993        0.00010558        0.00029113
      27         -0.472408        2.000000        0.01847928        0.00316435        0.00059015        0.00407805        0.00060723        0.00021710        0.00005425        0.00023276        0.00064632
      28         -0.470935        2.000000        0.01190369        0.00139990        0.00034163        0.00326094        0.00053477        0.00011311        0.00003571        0.00017909        0.00026390
      29         -0.470281        2.000000        0.02463231        0.00385371        0.00039427        0.00543038        0.00123752        0.00018575        0.00006545        0.00040715        0.00051244
      30         -0.468691        2.000000        0.52292129        0.06007746        0.00328959        0.12106014        0.02389906        0.00414166        0.00054073        0.00855051        0.01123697
      31         -0.467772        2.000000        0.00533960        0.00121382        0.00046347        0.00113304        0.00019333        0.00012255        0.00005467        0.00010605        0.00017773
      32         -0.463895        2.000000        0.00268089        0.00062645        0.00046916        0.00082445        0.00009769        0.00004810        0.00004701        0.00004585        0.00007618
      33         -0.422779        2.000000        0.37147615        0.09154276        0.04740153        0.17344151        0.00803439        0.00782062        0.00625543        0.01641427        0.00702512
      34         -0.419945        2.000000        0.36020415        0.09201362        0.03614251        0.18655133        0.00910708        0.00702936        0.00865829        0.01446422        0.00399917
      35         -0.418125        2.000000        0.33881983        0.18212887        0.03943369        0.07438977        0.00451957        0.01452433        0.00688166        0.00547190        0.00961944
      36         -0.413604        2.000000        0.21739317        0.05380336        0.03873869        0.05786234        0.00881250        0.00647057        0.00434259        0.00665123        0.00611356
      37         -0.412212        2.000000        0.15414134        0.03325456        0.02258986        0.04859285        0.00703581        0.00406416        0.00296340        0.00508306        0.00338615
      38         -0.410903        2.000000        0.27938786        0.08219293        0.03698639        0.08464659        0.01174938        0.00698993        0.00683517        0.00890040        0.00889344
      39         -0.410508        2.000000        0.03721673        0.00681477        0.00580093        0.01611783        0.00161636        0.00092890        0.00071051        0.00159638        0.00057322
      40         -0.409425        2.000000        0.20683344        0.05103689        0.03615800        0.06881938        0.00739302        0.00592897        0.00402367        0.00702324        0.00675498
      41         -0.406676        2.000000        0.25125817        0.08385118        0.03806682        0.06467921        0.00600880        0.00955240        0.00624002        0.00652305        0.01073538
      42         -0.406413        2.000000        0.36690169        0.13058549        0.04668862        0.09979882        0.01093546        0.01120211        0.01190577        0.00955587        0.01634311
      43         -0.403832        2.000000        0.06224150        0.02144599        0.00728715        0.01808357        0.00183955        0.00191380        0.00147642        0.00163879        0.00238810
      44         -0.403531        2.000000        0.11036928        0.03847972        0.01333629        0.02883932        0.00331314        0.00359851        0.00235162        0.00312890        0.00412887
      45         -0.402771        2.000000        0.35881612        0.09713808        0.04412116        0.11292646        0.01669615        0.00805874        0.01222185        0.01092545        0.00957017
      46         -0.402050        2.000000        0.32971371        0.09792106        0.04099140        0.09307525        0.01024483        0.00914681        0.00993851        0.00819935        0.01486323
      47         -0.401117        2.000000        0.03933917        0.01076014        0.00516824        0.01207798        0.00148338        0.00105100        0.00101080        0.00111230        0.00173466
      48         -0.399936        2.000000        0.01375493        0.00403325        0.00239936        0.00476393        0.00045812        0.00048851        0.00032311        0.00030889        0.00054295
      49         -0.398513        2.000000        0.07789819        0.02658118        0.01087902        0.01987471        0.00220791        0.00209792        0.00189291        0.00192659        0.00342118
      50         -0.396790        2.000000        0.00737648        0.00230699        0.00269313        0.00225441        0.00022647        0.00021008        0.00026105        0.00020851        0.00023840
      51         -0.385102        2.000000        0.20539843        0.01968346        0.23032927        0.03050849        0.00508083        0.00530286        0.00881966        0.00703451        0.00293186
      52         -0.380643        2.000000        0.17908623        0.03618106        0.19245484        0.01390156        0.00185986        0.00774408        0.01004045        0.00210840        0.00624050
      53         -0.378862        2.000000        0.12499429        0.01211235        0.15317890        0.01914200        0.00345161        0.00192373        0.00838459        0.00451165        0.00174979
      54         -0.376937        2.000000        0.10901228        0.01407482        0.11967809        0.01411912        0.00290217        0.00274638        0.00656402        0.00381754        0.00176013
      55         -0.375624        2.000000        0.14413337        0.01554055        0.13747713        0.02699514        0.00378335        0.00363059        0.01079473        0.00476362        0.00266205
      56         -0.373982        2.000000        0.10016199        0.00972202        0.08958887        0.01953865        0.00361607        0.00168573        0.00690658        0.00352354        0.00176400
      57         -0.372380        2.000000        0.17963975        0.02704661        0.17314032        0.01990743        0.00279847        0.00526194        0.01088403        0.00424339        0.00440710
      58         -0.366482        2.000000        0.13271341        0.02301814        0.12326755        0.01659470        0.00235349        0.00467491        0.00811465        0.00257764        0.00331286
      59         -0.365374        2.000000        0.10606712        0.01346403        0.07770101        0.02298930        0.00344892        0.00183332        0.00683852        0.00357547        0.00206478
      60         -0.363302        2.000000        0.11407711        0.02062637        0.09223121        0.01577667        0.00231488        0.00331421        0.00646044        0.00251585        0.00335576
      61         -0.362781        2.000000        0.11769593        0.01179267        0.12829950        0.02139928        0.00320273        0.00165635        0.00613882        0.00346144        0.00147278
      62         -0.362521        2.000000        0.12021445        0.01620545        0.09253403        0.02267436        0.00329764        0.00261952        0.00731337        0.00320828        0.00237232
      63         -0.358874        2.000000        0.14641878        0.02563896        0.13226464        0.01300637        0.00223673        0.00471600        0.00841282        0.00331309        0.00394371
      64         -0.352277        2.000000        0.07974677        0.00641804        0.11808125        0.00667393        0.00116374        0.00102008        0.00454389        0.00122504        0.00078195
      65         -0.280234        2.000000        0.00229635        0.00631729        0.01541312        0.00802492        0.00019584        0.00037028        0.00129502        0.00028151        0.00041789
      66         -0.279626        2.000000        0.00077125        0.00173926        0.00694976        0.00352615        0.00011590        0.00011354        0.00040386        0.00024651        0.00013958
      67         -0.276511        2.000000        0.00132856        0.00245465        0.00840652        0.00212704        0.00016146        0.00042598        0.00101603        0.00014394        0.00020913
      68         -0.273503        2.000000        0.00714284        0.02108288        0.07728067        0.03625286        0.00143457        0.00071594        0.00497777        0.00066689        0.00219297
      69         -0.270905        2.000000        0.00724342        0.03823332        0.09680248        0.04865518        0.00232613        0.00080300        0.00453424        0.00047982        0.00141942
      70         -0.269463        2.000000        0.00603726        0.04481617        0.09342476        0.04786899        0.00127730        0.00093393        0.00324907        0.00046820        0.00185892
      71         -0.267394        2.000000        0.00364899        0.01456196        0.05494163        0.02679645        0.00056263        0.00033592        0.00201906        0.00027800        0.00116924
      72         -0.265765        2.000000        0.00712232        0.08947381        0.24678777        0.12134600        0.00145627        0.00071441        0.00755021        0.00119868        0.00205615
      73         -0.264378        2.000000        0.00464667        0.04562814        0.23423156        0.10780037        0.00204788        0.00083776        0.00945147        0.00158983        0.00084920
      74         -0.262764        2.000000        0.00410210        0.01961365        0.07252164        0.03680548        0.00116990        0.00050851        0.00248940        0.00062597        0.00147171
      75         -0.262248        2.000000        0.00517685        0.13038355        0.17932248        0.04149895        0.00222167        0.00129838        0.00533731        0.00045567        0.00088274
      76         -0.261639        2.000000        0.00476477        0.01887002        0.10140058        0.04362292        0.00155163        0.00067284        0.00406443        0.00066132        0.00132770
      77         -0.258819        2.000000        0.00318029        0.02010640        0.05696738        0.01611790        0.00103912        0.00031752        0.00339521        0.00031054        0.00076401
      78         -0.256977        2.000000        0.00369693        0.01142573        0.03625753        0.01157230        0.00080137        0.00036346        0.00325440        0.00018782        0.00082900
      79         -0.256133        2.000000        0.00366353        0.04343289        0.12040588        0.03346604        0.00085847        0.00073794        0.00493394        0.00089037        0.00231945
      80         -0.255635        2.000000        0.00484178        0.05258133        0.19996564        0.03924267        0.00259965        0.00153405        0.01453812        0.00110714        0.00241906
      81         -0.254570        2.000000        0.01069802        0.03416950        0.13740472        0.05917073        0.00345904        0.00134973        0.00989881        0.00104919        0.00289314
      82         -0.253471        2.000000        0.00326722        0.03689901        0.08894350        0.01330829        0.00121847        0.00086346        0.00674376        0.00054903        0.00120174
      83         -0.252091        2.000000        0.00757735        0.03644484        0.08728845        0.02712875        0.00207575        0.00050232        0.00622921        0.00053709        0.00225026
      84         -0.251183        2.000000        0.00579761        0.02489113        0.13262201        0.04852575        0.00273846        0.00080287        0.00675482        0.00090878        0.00208621
      85         -0.250295        2.000000        0.00576630        0.03918492        0.13437029        0.04774447        0.00245101        0.00155032        0.00702553        0.00075358        0.00312605
      86         -0.250109        2.000000        0.00820821        0.03625725        0.15054890        0.05601038        0.00336646        0.00151608        0.00978143        0.00093827        0.00226753
      87         -0.249306        2.000000        0.01128046        0.07280993        0.20901661        0.09762246        0.00429534        0.00176305        0.00697406        0.00147809        0.00659313
      88         -0.248483        2.000000        0.00530768        0.03776735        0.12249072        0.03589711        0.00242812        0.00102746        0.00434389        0.00068570        0.00290722
      89         -0.247653        2.000000        0.01197897        0.10504162        0.22883039        0.07518861        0.00556932        0.00165857        0.01160759        0.00168706        0.00391938
      90         -0.247072        2.000000        0.00625618        0.03134099        0.14602264        0.05102758        0.00276965        0.00135893        0.00875375        0.00154294        0.00246962
      91         -0.246112        2.000000        0.00589587        0.02943782        0.13424449        0.03268506        0.00215235        0.00214625        0.01608997        0.00169473        0.00132539
      92         -0.245769        2.000000        0.00744480        0.03296678        0.11499693        0.03695791        0.00188551        0.00095285        0.00649480        0.00081680        0.00335178
      93         -0.244487        2.000000        0.01201648        0.04286001        0.15937960        0.09696341        0.00490294        0.00182259        0.00989699        0.00147905        0.00377174
      94         -0.243594        2.000000        0.00542327        0.02468733        0.10139536        0.04732811        0.00133054        0.00234892        0.01304731        0.00138823        0.00180492
      95         -0.243288        2.000000        0.00649159        0.02325924        0.17342478        0.05886476        0.00345290        0.00138162        0.01217126        0.00136482        0.00269924
      96         -0.242458        2.000000        0.00771343        0.05654558        0.14832141        0.02322361        0.00311809        0.00169475        0.01266637        0.00084919        0.00305292
      97         -0.242019        2.000000        0.00760668        0.06365496        0.23456664        0.05652102        0.00332695        0.00218618        0.01475992        0.00169814        0.00506263
      98         -0.240583        2.000000        0.00896782        0.04324048        0.16302669        0.05148786        0.00431292        0.00097350        0.00998170        0.00128115        0.00224591
      99         -0.239345        2.000000        0.00545499        0.05687416        0.16769011        0.04363312        0.00296356        0.00110373        0.01693389        0.00193102        0.00243505
     100         -0.238454        2.000000        0.00896221        0.05196307        0.11823685        0.04307257        0.00231658        0.00174253        0.01484655        0.00165883        0.00246020
     101         -0.238049        2.000000        0.01074819        0.04000028        0.13760455        0.06164894        0.00344693        0.00189330        0.01302662        0.00138077        0.00294683
     102         -0.237678        2.000000        0.00903481        0.08798143        0.17444232        0.06179000        0.00302465        0.00238020        0.01611751        0.00282160        0.00427374
     103         -0.236868        2.000000        0.00288730        0.06129923        0.16095545        0.03898423        0.00132862        0.00281812        0.02449974        0.00210415        0.00139093
     104         -0.235137        2.000000        0.01394452        0.04796891        0.20602527        0.09340855        0.00488589        0.00344234        0.02581010        0.00235019        0.00248961
     105         -0.234091        2.000000        0.01515831        0.13337356        0.15067824        0.08434836        0.00667229        0.00200932        0.01613026        0.00327010        0.00500497
     106         -0.233472        2.000000        0.00609716        0.04083662        0.14233325        0.07625272        0.00323689        0.00271242        0.01258993        0.00191419        0.00286213
     107         -0.232649        2.000000        0.00438539        0.08562221        0.12737701        0.08296435        0.00318179        0.00270064        0.01500155        0.00283488        0.00197273
     108         -0.231818        2.000000        0.01409708        0.04612057        0.18227576        0.09428805        0.00652159        0.00201402        0.02006580        0.00229310        0.00516160
     109         -0.231446        2.000000        0.01776406        0.05389776        0.13039273        0.07437025        0.00706976        0.00242282        0.01514468        0.00153900        0.00428650
     110         -0.231019        2.000000        0.01665042        0.07896065        0.19894415        0.10949696        0.00486547        0.00334317        0.02466919        0.00363234        0.00639441
     111         -0.229459        2.000000        0.01076892        0.07552732        0.19669688        0.09309564        0.00455925        0.00587325        0.02327045        0.00377642        0.00214969
     112         -0.228158        2.000000        0.00779856        0.08507190        0.20438374        0.06303631        0.00256497        0.00368240        0.02756532        0.00454229        0.00405419
     113         -0.227780        2.000000        0.01734612        0.07072264        0.14297776        0.08958550        0.00644132        0.00168665        0.01455693        0.00259864        0.00551404
     114         -0.226332        2.000000        0.02736724        0.09983491        0.15426260        0.09636490        0.00873407        0.00226549        0.01746892        0.00145154        0.00813478
     115         -0.225601        2.000000        0.01701263        0.09972841        0.22405496        0.07142498        0.00664683        0.00314780        0.02490737        0.00358070        0.00496299
     116         -0.224920        2.000000        0.02358956        0.08808717        0.18478897        0.10309140        0.00747932        0.00244452        0.01827943        0.00338727        0.00680652
     117         -0.224749        2.000000        0.03248485        0.12712507        0.18506527        0.12575722        0.01015389        0.00253147        0.01797959        0.00222154        0.01044377
     118         -0.223719        2.000000        0.01587361        0.10225151        0.10107667        0.04629202        0.00408167        0.00091968        0.01217687        0.00156471        0.00684341
     119         -0.222951        2.000000        0.01476292        0.13379144        0.17955252        0.07609091        0.00284002        0.00340028        0.02164583        0.00221001        0.00898742
     120         -0.222207        2.000000        0.01399057        0.07370511        0.25471798        0.09611648        0.00601919        0.00525293        0.02410178        0.00318277        0.01053022
     121         -0.221036        2.000000        0.03307560        0.15769854        0.17835325        0.11411818        0.01037916        0.00225152        0.01853602        0.00206611        0.01303882
     122         -0.220117        2.000000        0.01975614        0.08471465        0.25249966        0.13484299        0.01000497        0.00509563        0.02268724        0.00432836        0.00598691
     123         -0.219488        2.000000        0.03413552        0.16342055        0.20849456        0.16428532        0.01310029        0.00275123        0.02002311        0.00519292        0.01135654
     124         -0.218585        2.000000        0.00913085        0.10112996        0.15274644        0.11410418        0.00596859        0.00337919        0.02179477        0.00379536        0.00449309
     125         -0.215067        2.000000        0.02638325        0.15403992        0.19786418        0.15853262        0.00922985        0.00343788        0.01601498        0.00559479        0.01101819
     126         -0.213717        2.000000        0.00705459        0.10366229        0.22116469        0.10379227        0.00633974        0.00461955        0.03697215        0.00630987        0.00514700
     127         -0.213123        2.000000        0.00647351        0.10746279        0.21017753        0.10104045        0.00257404        0.00316338        0.04352212        0.00600504        0.00515396
     128         -0.212216        2.000000        0.01430085        0.09466751        0.20785339        0.15107867        0.00908065        0.00532376        0.03588127        0.00408380        0.00735895
     129         -0.208697        2.000000        0.02850300        0.08583553        0.24538393        0.13404041        0.01291664        0.00394168        0.03309930        0.00613884        0.00891776
     130         -0.208145        2.000000        0.02220269        0.14996382        0.20168537        0.10646878        0.00813547        0.00209897        0.03133088        0.00495571        0.01320860
     131         -0.206893        2.000000        0.01840760        0.20391480        0.21919221        0.07609043        0.01355291        0.00584180        0.03108791        0.00697588        0.00738132
     132         -0.203883        2.000000        0.02187393        0.21504016        0.20643474        0.23244435        0.00837914        0.00773753        0.02194367        0.01053685        0.01909253
     133         -0.203390        2.000000        0.01488726        0.19262011        0.18414297        0.19020319        0.00878282        0.00796132        0.02869771        0.00562918        0.01482361
     134         -0.201649        2.000000        0.01602969        0.14276542        0.24093772        0.20462167        0.01083263        0.00655736        0.03036619        0.00947384        0.01466067
     135         -0.199767        2.000000        0.02144975        0.15444667        0.18301675        0.22277413        0.01251334        0.00688770        0.01910968        0.00799257        0.01488296
     136         -0.198232        2.000000        0.01260991        0.11169216        0.18997712        0.14124610        0.00837526        0.00656228        0.03356160        0.00390546        0.00879168
     137         -0.195448        2.000000        0.01903477        0.24117324        0.20674220        0.16428641        0.01912091        0.01402324        0.01853143        0.00962029        0.00760721
     138         -0.195129        2.000000        0.01953316        0.27869670        0.16853181        0.09523846        0.01892166        0.00623655        0.01734893        0.00851119        0.00719963
     139         -0.193923        2.000000        0.00481117        0.05295271        0.04705029        0.01869180        0.00333961        0.00141344        0.00531941        0.00162984        0.00276814
     140         -0.191495        2.000000        0.00184580        0.01720331        0.01868546        0.00758074        0.00140554        0.00049852        0.00181208        0.00059225        0.00085826
     141         -0.188598        2.000000        0.00029361        0.00303013        0.00495776        0.00180141        0.00016428        0.00012487        0.00060919        0.00008745        0.00025673
     142         -0.176798        2.000000        0.00005397        0.00078711        0.00233334        0.00096802        0.00005480        0.00004692        0.00029547        0.00004995        0.00006702
     143         -0.170984        2.000000        0.00003778        0.00031096        0.00093498        0.00090654        0.00002537        0.00002329        0.00007647        0.00004556        0.00002308
     144         -0.169855        2.000000        0.00011104        0.00077291        0.00126247        0.00073383        0.00004958        0.00005117        0.00016729        0.00001901        0.00005272