# Projected DOS for atomic kind Ge at iteration step i = 0, E(Fermi) =    -0.094889 a.u.
#     MO Eigenvalue [a.u.]      Occupation                 s                py                pz                px               d-2               d-1                d0               d+1               d+2
       1         -0.558642        2.000000        0.75090999        0.00589484        0.01994525        0.00475297        0.00069967        0.00049313        0.00728442        0.00062191        0.00097420
       2         -0.542779        2.000000        0.01068345        0.00015619        0.00323640        0.00027146        0.00004142        0.00001315        0.00060991        0.00005644        0.00003403
       3         -0.537933        2.000000        0.65488655        0.03622772        0.01262001        0.07463305        0.00704438        0.00206588        0.00288701        0.00419760        0.00372192
       4         -0.534806        2.000000        0.65508794        0.08088980        0.01389423        0.03309845        0.00334475        0.00395958        0.00245115        0.00196718        0.00817121
       5         -0.530654        2.000000        0.64854045        0.03404040        0.00822550        0.08103126        0.00793260        0.00177759        0.00329679        0.00496020        0.00382171
       6         -0.529092        2.000000        0.64067756        0.05222300        0.01001076        0.05884613        0.00618661        0.00259348        0.00257188        0.00331549        0.00564419
       7         -0.527172        2.000000        0.64762976        0.09966360        0.00840821        0.01332078        0.00212625        0.00550267        0.00327958        0.00096155        0.01034822
       8         -0.523191        2.000000        0.05416967        0.00452018        0.00203012        0.00526382        0.00049638        0.00030838        0.00034907        0.00026574        0.00055283
       9         -0.521810        2.000000        0.58806832        0.03215867        0.00691324        0.07754051        0.00762133        0.00172661        0.00253031        0.00432083        0.00320365
      10         -0.517994        2.000000        0.02179804        0.00194698        0.00196810        0.00153980        0.00023399        0.00017898        0.00037668        0.00014037        0.00031395
      11         -0.516741        2.000000        0.02806773        0.00139793        0.00153741        0.00351655        0.00044238        0.00011387        0.00031223        0.00025866        0.00016978
      12         -0.516130        2.000000        0.01077753        0.00069718        0.00166004        0.00100215        0.00015583        0.00006147        0.00028997        0.00011374        0.00010463
      13         -0.512701        2.000000        0.00765007        0.00042868        0.00153864        0.00067057        0.00010128        0.00007956        0.00020627        0.00006101        0.00009940
      14         -0.509880        2.000000        0.00387010        0.00050565        0.00091123        0.00023203        0.00003820        0.00004417        0.00015243        0.00003778        0.00007839
      15         -0.491439        2.000000        0.54828063        0.13612486        0.00239401        0.07954043        0.01268292        0.00835188        0.00088654        0.00581098        0.01642838
      16         -0.487223        2.000000        0.54274064        0.06087621        0.00245860        0.15300146        0.01827579        0.00523749        0.00068956        0.00948649        0.01206769
      17         -0.486148        2.000000        0.54683561        0.07438805        0.00162554        0.13011428        0.01734214        0.00584672        0.00036787        0.01065666        0.01553792
      18         -0.483304        2.000000        0.54744127        0.09621453        0.00197244        0.10839868        0.01936836        0.00717028        0.00078987        0.00768675        0.01336999
      19         -0.481746        2.000000        0.52467450        0.12217242        0.00138249        0.08582700        0.01355092        0.00750743        0.00057178        0.00528969        0.01608107
      20         -0.481070        2.000000        0.54797191        0.12405648        0.00174609        0.06906371        0.01159940        0.00899658        0.00038518        0.00454495        0.02515253
      21         -0.479843        2.000000        0.54847079        0.09140038        0.00258857        0.10325550        0.02112097        0.00587889        0.00091170        0.00726507        0.01611490
      22         -0.477058        2.000000        0.06392607        0.01792324        0.00066385        0.00694977        0.00110657        0.00093129        0.00010965        0.00075331        0.00296832
      23         -0.475526        2.000000        0.42667248        0.10240893        0.00106626        0.06331577        0.01026424        0.00589291        0.00035416        0.00372100        0.01779025
      24         -0.473918        2.000000        0.08308772        0.01645459        0.00062207        0.01550998        0.00243847        0.00107349        0.00010706        0.00101889        0.00273997
      25         -0.470835        2.000000        0.04058248        0.00445015        0.00076486        0.01018042        0.00159592        0.00041943        0.00009052        0.00063569        0.00109807
      26         -0.470574        2.000000        0.02252766        0.00355768        0.00031060        0.00435105        0.00089171        0.00020671        0.00004383        0.00032333        0.00065927
      27         -0.469735        2.000000        0.48863616        0.05710879        0.00236459        0.11475434        0.02100279        0.00385854        0.00064493        0.00783732        0.01162175
      28         -0.468823        2.000000        0.01384041        0.00186842        0.00045308        0.00313245        0.00052594        0.00019381        0.00005827        0.00030799        0.00033407
      29         -0.468117        2.000000        0.00293056        0.00047189        0.00023202        0.00079664        0.00011609        0.00004697        0.00002458        0.00006037        0.00009935
      30         -0.465861        2.000000        0.00513159        0.00076421        0.00030201        0.00109896        0.00018933        0.00007293        0.00003407        0.00010990        0.00017679
      31         -0.465108        2.000000        0.00838471        0.00106100        0.00036524        0.00235310        0.00031543        0.00007886        0.00004240        0.00016145        0.00019573
      32         -0.463774        2.000000        0.00181343        0.00049794        0.00046799        0.00065549        0.00006365        0.00004482        0.00003860        0.00005600        0.00004552
      33         -0.423840        2.000000        0.37527276        0.07553603        0.03447481        0.21522265        0.01110381        0.00385785        0.00828710        0.01823539        0.00335156
      34         -0.420759        2.000000        0.37772212        0.08819061        0.04112556        0.18628655        0.00969203        0.00623459        0.00920474        0.01606761        0.00573630
      35         -0.418677        2.000000        0.34401883        0.21469201        0.05825151        0.01847294        0.00209752        0.01934731        0.00572127        0.00446473        0.01160250
      36         -0.413388        2.000000        0.36237550        0.10006748        0.06395580        0.09911971        0.01430988        0.01184013        0.00764876        0.00989918        0.00836743
      37         -0.411457        2.000000        0.02646260        0.00841052        0.00365326        0.00817163        0.00079565        0.00090272        0.00063972        0.00081204        0.00087246
      38         -0.410387        2.000000        0.36776354        0.10666371        0.05308525        0.10452617        0.01269898        0.01142556        0.00785441        0.01059368        0.01248020
      39         -0.408816        2.000000        0.15345523        0.04642164        0.02339667        0.03882970        0.00478919        0.00498500        0.00387678        0.00471773        0.00651301
      40         -0.408134        2.000000        0.25720897        0.06936979        0.04025354        0.06690143        0.00851389        0.00775533        0.00600480        0.00855221        0.01064014
      41         -0.407277        2.000000        0.15342505        0.04181082        0.02601920        0.04778218        0.00407830        0.00495467        0.00357908        0.00471908        0.00602872
      42         -0.406291        2.000000        0.30266818        0.09177981        0.03468155        0.09522061        0.01157050        0.00783490        0.00960979        0.00830914        0.01079667
      43         -0.405560        2.000000        0.37039961        0.10895577        0.04927615        0.10559862        0.01386325        0.00900109        0.01157664        0.00964617        0.01251655
      44         -0.403160        2.000000        0.34781993        0.10032149        0.04393448        0.10668628        0.01100415        0.01038146        0.01146189        0.00925866        0.01500980
      45         -0.401681        2.000000        0.05936875        0.01454023        0.00904360        0.02053629        0.00270928        0.00134351        0.00134144        0.00224847        0.00149046
      46         -0.398772        2.000000        0.03428856        0.01017596        0.00461091        0.01093755        0.00124415        0.00119553        0.00086369        0.00087255        0.00117804
      47         -0.398116        2.000000        0.02225658        0.00693543        0.00686501        0.00607709        0.00067266        0.00053180        0.00069123        0.00059918        0.00079988
      48         -0.397920        2.000000        0.00834503        0.00318971        0.00193927        0.00253719        0.00021628        0.00024425        0.00020832        0.00020574        0.00040795
      49         -0.395227        2.000000        0.00705912        0.00175095        0.00394657        0.00209175        0.00021549        0.00020975        0.00032824        0.00018850        0.00023426
      50         -0.392798        2.000000        0.01329277        0.00302862        0.00815863        0.00350071        0.00040491        0.00035628        0.00047898        0.00040394        0.00034328
      51         -0.387854        2.000000        0.18386959        0.01917763        0.20494857        0.02814381        0.00374212        0.00454144        0.00846494        0.00607341        0.00293653
      52         -0.381661        2.000000        0.20214851        0.02977740        0.21253155        0.02484231        0.00454261        0.00582697        0.01090085        0.00578096        0.00427941
      53         -0.378841        2.000000        0.17008426        0.02387927        0.20533952        0.01479921        0.00234738        0.00665730        0.00844597        0.00368177        0.00451313
      54         -0.377077        2.000000        0.23539027        0.02701329        0.20277756        0.03917187        0.00594897        0.00489637        0.01418719        0.00786555        0.00418906
      55         -0.375325        2.000000        0.16481451        0.01677152        0.15694023        0.03223451        0.00462908        0.00295510        0.01107508        0.00639287        0.00282166
      56         -0.373088        2.000000        0.13492569        0.02825867        0.13846270        0.00755627        0.00093525        0.00623162        0.00944156        0.00160083        0.00469310
      57         -0.369449        2.000000        0.16916067        0.01921252        0.18382178        0.03113125        0.00487916        0.00396399        0.01168811        0.00530688        0.00268772
      58         -0.366504        2.000000        0.07326853        0.01243096        0.07326556        0.00929939        0.00122629        0.00207987        0.00394771        0.00111386        0.00185738
      59         -0.364012        2.000000        0.08484962        0.01474306        0.06192467        0.01229877        0.00194790        0.00252175        0.00513909        0.00180996        0.00251838
      60         -0.361884        2.000000        0.11755486        0.01369713        0.08973285        0.02476069        0.00356910        0.00273134        0.00685768        0.00403075        0.00198024
      61         -0.360762        2.000000        0.08256320        0.01257828        0.06069763        0.01274660        0.00204515        0.00216700        0.00505758        0.00255548        0.00210019
      62         -0.358381        2.000000        0.06521811        0.01545061        0.04760490        0.00557009        0.00084935        0.00221066        0.00387625        0.00136044        0.00225935
      63         -0.357296        2.000000        0.06464548        0.00899308        0.05075728        0.01241855        0.00182328        0.00175970        0.00411049        0.00185683        0.00141154
      64         -0.353888        2.000000        0.08540665        0.00378057        0.15007881        0.00515820        0.00083933        0.00064298        0.00553954        0.00120518        0.00041520
      65         -0.279529        2.000000        0.00119839        0.00463414        0.00963253        0.00464429        0.00012009        0.00022473        0.00072104        0.00039471        0.00021250
      66         -0.277531        2.000000        0.00237761        0.00999849        0.02340455        0.01403458        0.00023763        0.00044775        0.00127523        0.00039577        0.00055233
      67         -0.273775        2.000000        0.00190525        0.01587729        0.03267236        0.01009145        0.00046710        0.00078879        0.00158632        0.00030167        0.00051243
      68         -0.271083        2.000000        0.00847358        0.03366413        0.11516496        0.06445449        0.00291040        0.00107166        0.00487049        0.00105755        0.00300397
      69         -0.269839        2.000000        0.00889610        0.12754959        0.17509056        0.05229608        0.00359810        0.00068877        0.00643856        0.00067584        0.00158534
      70         -0.268192        2.000000        0.00401370        0.02139520        0.07336690        0.04109437        0.00082666        0.00046235        0.00221672        0.00054182        0.00117025
      71         -0.266598        2.000000        0.00851327        0.07891815        0.24058034        0.14415068        0.00088518        0.00116291        0.00831380        0.00130998        0.00265927
      72         -0.264268        2.000000        0.00471473        0.05029695        0.10268517        0.03656085        0.00168283        0.00088498        0.00434047        0.00047730        0.00137640
      73         -0.263105        2.000000        0.00483991        0.05753126        0.15645106        0.04592343        0.00221595        0.00079002        0.00686409        0.00089562        0.00133266
      74         -0.261743        2.000000        0.00350880        0.05645701        0.15218817        0.04698408        0.00098671        0.00075550        0.00650695        0.00059768        0.00086344
      75         -0.260132        2.000000        0.00620467        0.04748056        0.13327675        0.06185972        0.00123996        0.00074356        0.00405496        0.00118191        0.00266157
      76         -0.259745        2.000000        0.00440564        0.01964138        0.07553269        0.03566048        0.00101785        0.00058806        0.00265611        0.00052648        0.00142629
      77         -0.258150        2.000000        0.00307380        0.03234844        0.08039606        0.02339363        0.00111655        0.00027324        0.00585867        0.00070336        0.00125448
      78         -0.254964        2.000000        0.00651030        0.05967880        0.21446148        0.06045824        0.00240853        0.00158808        0.01223694        0.00179200        0.00388737
      79         -0.253505        2.000000        0.00467845        0.02986170        0.07592647        0.02150424        0.00154189        0.00064156        0.00855584        0.00085433        0.00100975
      80         -0.253164        2.000000        0.00901942        0.06119073        0.16924354        0.06514777        0.00280284        0.00184903        0.01126395        0.00159867        0.00474119
      81         -0.252919        2.000000        0.00667832        0.05893364        0.13329599        0.02399678        0.00217380        0.00096945        0.00993403        0.00083741        0.00334369
      82         -0.252560        2.000000        0.00381531        0.04298940        0.08217179        0.01270935        0.00165337        0.00051116        0.00511513        0.00051819        0.00170309
      83         -0.251872        2.000000        0.00527023        0.03099205        0.08596800        0.03885470        0.00206515        0.00159549        0.00570114        0.00115270        0.00211796
      84         -0.251325        2.000000        0.00924167        0.06905597        0.17679279        0.05454054        0.00395904        0.00135461        0.00659678        0.00081042        0.00467087
      85         -0.250064        2.000000        0.01368500        0.14071334        0.26730537        0.05900289        0.00620521        0.00150039        0.02421120        0.00366965        0.00423533
      86         -0.249447        2.000000        0.01108698        0.05146883        0.13941968        0.04440260        0.00352472        0.00123917        0.01171674        0.00116947        0.00313925
      87         -0.248807        2.000000        0.01075209        0.06425995        0.15303956        0.07745732        0.00474720        0.00199698        0.01097844        0.00147023        0.00287989
      88         -0.247768        2.000000        0.00544130        0.05072836        0.14727691        0.02807527        0.00356545        0.00192471        0.00834709        0.00080299        0.00174838
      89         -0.246923        2.000000        0.00781688        0.03468515        0.14607117        0.03370719        0.00304936        0.00095596        0.01066405        0.00110603        0.00330569
      90         -0.245873        2.000000        0.00730374        0.03523416        0.15276605        0.04466735        0.00308099        0.00083366        0.01080817        0.00100603        0.00266260
      91         -0.245536        2.000000        0.00953779        0.03900901        0.18207543        0.07962620        0.00535953        0.00157080        0.01603951        0.00223859        0.00194720
      92         -0.244685        2.000000        0.01276260        0.03958511        0.11200622        0.03597803        0.00305773        0.00176945        0.01395051        0.00214444        0.00256232
      93         -0.244194        2.000000        0.00512629        0.02454578        0.08071628        0.02199529        0.00122234        0.00113426        0.00878518        0.00075466        0.00170493
      94         -0.242444        2.000000        0.00718514        0.03463477        0.11662510        0.04201749        0.00209476        0.00179758        0.01064995        0.00163224        0.00251861
      95         -0.242310        2.000000        0.00851045        0.05129940        0.13462767        0.03458008        0.00226203        0.00121110        0.00989999        0.00150220        0.00358123
      96         -0.241869        2.000000        0.00570162        0.06073091        0.17548939        0.07331690        0.00248377        0.00327208        0.01567970        0.00240972        0.00400518
      97         -0.241520        2.000000        0.00872227        0.06302650        0.20005207        0.07610052        0.00317348        0.00251538        0.01708188        0.00353848        0.00327366
      98         -0.240709        2.000000        0.01097801        0.05359830        0.27831433        0.06591670        0.00593422        0.00324424        0.02112529        0.00171358        0.00336880
      99         -0.239877        2.000000        0.00505611        0.02665043        0.07529870        0.01767849        0.00144858        0.00102519        0.00741333        0.00114274        0.00140449
     100         -0.238434        2.000000        0.00427602        0.03455935        0.12519082        0.04232325        0.00116087        0.00241884        0.01787584        0.00199189        0.00154724
     101         -0.237947        2.000000        0.01602000        0.04878142        0.16897318        0.13321913        0.00601881        0.00187792        0.01182589        0.00249873        0.00648522
     102         -0.236822        2.000000        0.00571439        0.02107537        0.07152956        0.02332874        0.00162976        0.00102244        0.00845833        0.00115333        0.00228896
     103         -0.236483        2.000000        0.01283282        0.09226135        0.17979308        0.11662779        0.00399240        0.00323326        0.02199800        0.00393019        0.00452314
     104         -0.235489        2.000000        0.00560173        0.04010224        0.16644326        0.07310007        0.00233712        0.00301255        0.01967021        0.00299357        0.00221425
     105         -0.234198        2.000000        0.01443070        0.05029492        0.14563945        0.09755996        0.00476898        0.00319758        0.01312932        0.00140831        0.00363284
     106         -0.233169        2.000000        0.01324817        0.06010160        0.15291197        0.09379622        0.00439548        0.00205184        0.02244412        0.00277163        0.00343749
     107         -0.231773        2.000000        0.01374172        0.08256801        0.13615659        0.04616460        0.00518414        0.00147563        0.01209785        0.00176735        0.00572564
     108         -0.231383        2.000000        0.00574803        0.04518304        0.18780467        0.06625055        0.00210011        0.00300374        0.02158422        0.00418048        0.00275068
     109         -0.230938        2.000000        0.00820676        0.05475938        0.20392951        0.04867325        0.00414199        0.00291074        0.02703797        0.00236932        0.00281994
     110         -0.230594        2.000000        0.00515625        0.06083418        0.11599220        0.06464728        0.00282881        0.00252492        0.01579687        0.00197062        0.00191451
     111         -0.229474        2.000000        0.01043921        0.06262888        0.13848168        0.04695787        0.00262207        0.00337307        0.01643110        0.00246187        0.00468152
     112         -0.228571        2.000000        0.02021308        0.11984914        0.23269882        0.13048406        0.00962854        0.00229591        0.02229555        0.00508991        0.00532362
     113         -0.227511        2.000000        0.00839227        0.06018082        0.14440855        0.05950030        0.00523768        0.00252580        0.01495646        0.00190715        0.00434767
     114         -0.226721        2.000000        0.02752131        0.11357116        0.15357556        0.10737629        0.00768892        0.00158584        0.01513151        0.00270903        0.00778291
     115         -0.226010        2.000000        0.02944731        0.16774392        0.19565209        0.05002496        0.00350090        0.00363517        0.02198520        0.00269772        0.01323326
     116         -0.224838        2.000000        0.02988425        0.08235424        0.18147465        0.13482755        0.01127460        0.00236845        0.01274280        0.00362106        0.00668836
     117         -0.224239        2.000000        0.00846232        0.06185292        0.14287506        0.07054541        0.00421829        0.00197730        0.01948588        0.00320878        0.00330602
     118         -0.222894        2.000000        0.02929998        0.16148078        0.14795160        0.13939733        0.01328452        0.00364389        0.01298234        0.00220242        0.00934657
     119         -0.221785        2.000000        0.01153535        0.10335110        0.13219516        0.09720938        0.00767641        0.00298186        0.01410422        0.00288218        0.00356606
     120         -0.221266        2.000000        0.02372823        0.12925019        0.14358012        0.07748646        0.00452152        0.00260953        0.01281309        0.00228288        0.01219858
     121         -0.220030        2.000000        0.00747710        0.05017195        0.11739776        0.02230735        0.00270815        0.00158171        0.01263121        0.00162180        0.00391945
     122         -0.219764        2.000000        0.00830024        0.06444509        0.16685656        0.10655545        0.00359673        0.00448211        0.01725070        0.00272950        0.00753502
     123         -0.219318        2.000000        0.02940314        0.14215670        0.22409240        0.16272792        0.01347701        0.00259117        0.02423901        0.00583922        0.00571164
     124         -0.217662        2.000000        0.01645474        0.10242350        0.22896904        0.07821767        0.00577839        0.00385534        0.02134188        0.00483559        0.00614047
     125         -0.216731        2.000000        0.02700191        0.14122822        0.19776343        0.15308230        0.00905701        0.00249473        0.01863963        0.00383321        0.01169820
     126         -0.214006        2.000000        0.01618579        0.07847679        0.18462632        0.14125528        0.00695036        0.00503552        0.02823158        0.00268032        0.00796487
     127         -0.212536        2.000000        0.02529761        0.10301753        0.21507500        0.16678870        0.01422616        0.00529910        0.02633562        0.00414567        0.00883916
     128         -0.212156        2.000000        0.01269425        0.12139458        0.23021837        0.11638337        0.00714450        0.00385206        0.04163592        0.00600307        0.00514583
     129         -0.208999        2.000000        0.02716790        0.13458480        0.21403012        0.19036554        0.01269211        0.00487122        0.02394701        0.00620477        0.01316480
     130         -0.208168        2.000000        0.01411109        0.07883635        0.23074927        0.09268710        0.00728220        0.00334794        0.03758638        0.00500596        0.00718626
     131         -0.205265        2.000000        0.01856652        0.22729407        0.20087576        0.17763988        0.01187288        0.00769268        0.02126829        0.00682575        0.01476385
     132         -0.204062        2.000000        0.01568918        0.13915290        0.19432890        0.12813089        0.00545469        0.00486722        0.03068963        0.00782499        0.01261128
     133         -0.201200        2.000000        0.02263194        0.12153794        0.25278506        0.12126409        0.00954826        0.00537389        0.03401272        0.00752713        0.01258276
     134         -0.198790        2.000000        0.01769992        0.16034587        0.22395819        0.18438381        0.01409054        0.00749723        0.03224363        0.00734675        0.00898659
     135         -0.197873        2.000000        0.01850031        0.25668611        0.19231850        0.23024594        0.01607456        0.00902739        0.01507250        0.01112675        0.01555488
     136         -0.197674        2.000000        0.02784483        0.20869081        0.21937412        0.17283143        0.01048172        0.00675281        0.02939294        0.00778487        0.01852721
     137         -0.196563        2.000000        0.01824388        0.23813312        0.19417665        0.18629954        0.01356278        0.01078518        0.02412585        0.00844815        0.01200642
     138         -0.194766        2.000000        0.02020395        0.25425502        0.19828321        0.18099459        0.01794859        0.01395108        0.02058674        0.00888457        0.01058220
     139         -0.190907        2.000000        0.00059904        0.00860714        0.00872353        0.00473431        0.00041643        0.00037087        0.00113026        0.00028926        0.00054972
     140         -0.189857        2.000000        0.00113464        0.00614841        0.01409952        0.00701368        0.00054197        0.00037951        0.00231768        0.00022598        0.00070967
     141         -0.186449        2.000000        0.00021943        0.00198202        0.00298087        0.00189600        0.00015644        0.00010421        0.00046541        0.00006639        0.00011594
     142         -0.174301        2.000000        0.00004208        0.00044063        0.00105502        0.00036841        0.00002271        0.00002236        0.00012469        0.00001739        0.00003827
     143         -0.169184        2.000000        0.00003674        0.00041629        0.00061473        0.00111551        0.00003247        0.00002540        0.00003433        0.00004814        0.00002631
     144         -0.166629        2.000000        0.00008239        0.00136925        0.00103847        0.00582874        0.00009579        0.00006012        0.00008708        0.00014746        0.00006459