# Projected DOS for atomic kind Si at iteration step i = 0, E(Fermi) =    -0.093794 a.u.
#     MO Eigenvalue [a.u.]      Occupation                 s                py                pz                px               d-2               d-1                d0               d+1               d+2
       1         -0.557891        2.000000        0.01717472        0.00029891        0.00160542        0.00014343        0.00002376        0.00004398        0.00018987        0.00002815        0.00002460
       2         -0.545227        2.000000        0.64910400        0.00358984        0.02529003        0.00189316        0.00069339        0.00045425        0.03085057        0.00025830        0.00118579
       3         -0.536785        2.000000        0.01030429        0.00258724        0.00114843        0.00353339        0.00029970        0.00015059        0.00012834        0.00020790        0.00018407
       4         -0.534981        2.000000        0.00725744        0.00316699        0.00110200        0.00126969        0.00009612        0.00018057        0.00012767        0.00008473        0.00030345
       5         -0.530564        2.000000        0.00938020        0.00170304        0.00084728        0.00357295        0.00026416        0.00008671        0.00014406        0.00015007        0.00018201
       6         -0.528873        2.000000        0.09177000        0.02904094        0.00192541        0.01442847        0.00170328        0.00143309        0.00076288        0.00058838        0.00365356
       7         -0.527100        2.000000        0.13513811        0.04485991        0.00336318        0.01765210        0.00204005        0.00170095        0.00190031        0.00088794        0.00512232
       8         -0.526204        2.000000        0.30360423        0.09366220        0.00868942        0.03898782        0.00490521        0.00527184        0.00521353        0.00179708        0.01344402
       9         -0.522045        2.000000        0.20226134        0.03047757        0.00387080        0.06381416        0.00740072        0.00117624        0.00263474        0.00318946        0.00350062
      10         -0.520801        2.000000        0.36644459        0.05714768        0.00818494        0.10885801        0.01373873        0.00239202        0.00618045        0.00542703        0.00756774
      11         -0.519833        2.000000        0.44751752        0.07184261        0.01010484        0.12876253        0.01621472        0.00386337        0.00695769        0.00577439        0.00897982
      12         -0.518418        2.000000        0.45480043        0.07729688        0.00860938        0.12945411        0.01620638        0.00393059        0.00810748        0.00583796        0.00958742
      13         -0.514466        2.000000        0.49221235        0.09518264        0.00899887        0.13292200        0.01589070        0.00408521        0.00669787        0.00622381        0.01352616
      14         -0.512100        2.000000        0.49687957        0.18266994        0.00804209        0.05126037        0.00685245        0.00895853        0.00694816        0.00250881        0.02231187
      15         -0.490802        2.000000        0.00254934        0.00191225        0.00062876        0.00095956        0.00022455        0.00028886        0.00017019        0.00018177        0.00018885
      16         -0.488033        2.000000        0.00521806        0.00122199        0.00053182        0.00392983        0.00038653        0.00023391        0.00017376        0.00035565        0.00049640
      17         -0.484182        2.000000        0.00854304        0.00260383        0.00039116        0.00522781        0.00074540        0.00021380        0.00018984        0.00039235        0.00068668
      18         -0.483100        2.000000        0.01205086        0.00499546        0.00044396        0.00607152        0.00097395        0.00045538        0.00014974        0.00048253        0.00097478
      19         -0.481491        2.000000        0.12139011        0.04893699        0.00077449        0.05094924        0.01031444        0.00305951        0.00050735        0.00334262        0.01037426
      20         -0.480528        2.000000        0.02093122        0.00857041        0.00050923        0.00888932        0.00160066        0.00091257        0.00019952        0.00066653        0.00201277
      21         -0.479531        2.000000        0.23896076        0.07896575        0.00163940        0.11334798        0.02158161        0.00488228        0.00049420        0.00872764        0.01983410
      22         -0.478227        2.000000        0.00999151        0.00593393        0.00055095        0.00299899        0.00081790        0.00050595        0.00017682        0.00029959        0.00087045
      23         -0.477134        2.000000        0.16684679        0.06220703        0.00084950        0.07763899        0.01417060        0.00516427        0.00039962        0.00475799        0.01364817
      24         -0.475996        2.000000        0.24057141        0.09761919        0.00142308        0.09616897        0.02293132        0.00745181        0.00029167        0.00698455        0.02005910
      25         -0.473504        2.000000        0.38429938        0.11991809        0.00170296        0.19178730        0.03682896        0.00741029        0.00079698        0.01439973        0.03382559
      26         -0.473081        2.000000        0.39690900        0.18163844        0.00149137        0.11743430        0.04031372        0.01494676        0.00056147        0.00877292        0.03795328
      27         -0.471522        2.000000        0.39544761        0.10513984        0.00137961        0.17934030        0.06390509        0.00785329        0.00122610        0.01468983        0.03186106
      28         -0.469930        2.000000        0.40752252        0.18000921        0.00123706        0.10327771        0.03655881        0.01420101        0.00132937        0.00862888        0.05851432
      29         -0.469186        2.000000        0.34261981        0.14538273        0.00116712        0.11510904        0.02299071        0.01062723        0.00112654        0.00765948        0.04645711
      30         -0.467936        2.000000        0.06109417        0.02814194        0.00038780        0.01726684        0.00391994        0.00207437        0.00023306        0.00127787        0.00887278
      31         -0.467867        2.000000        0.39505576        0.16488116        0.00096246        0.14563461        0.03432942        0.01172716        0.00146108        0.00915426        0.04178034
      32         -0.463877        2.000000        0.40347676        0.12035479        0.00214901        0.15925095        0.05667159        0.00900028        0.00152460        0.01273717        0.04046631
      33         -0.422752        2.000000        0.00966154        0.00473222        0.00356655        0.01014427        0.00032945        0.00049102        0.00083008        0.00072382        0.00021155
      34         -0.420154        2.000000        0.01390541        0.00634988        0.00416604        0.01480402        0.00035179        0.00064256        0.00130366        0.00123112        0.00022041
      35         -0.417850        2.000000        0.02960748        0.04126931        0.00980891        0.00151418        0.00025838        0.00352024        0.00232336        0.00043496        0.00098158
      36         -0.413882        2.000000        0.06935045        0.02612290        0.01686649        0.06343876        0.00318906        0.00344282        0.00428279        0.00711861        0.00153445
      37         -0.410835        2.000000        0.16732941        0.16349739        0.02863682        0.06713514        0.00232182        0.01605180        0.00898327        0.00654711        0.00632237
      38         -0.410622        2.000000        0.22255378        0.16604349        0.03294184        0.13198116        0.00576071        0.01652528        0.01071319        0.01389575        0.00640866
      39         -0.410253        2.000000        0.09387308        0.03478232        0.01819472        0.08223593        0.00420033        0.00568327        0.00460891        0.00814204        0.00294211
      40         -0.409436        2.000000        0.23129873        0.09065683        0.03526660        0.22036032        0.00831418        0.01018707        0.01096836        0.02266579        0.00356639
      41         -0.407417        2.000000        0.10564519        0.06808704        0.02483716        0.04123692        0.00786870        0.00882377        0.00794860        0.00654957        0.00826167
      42         -0.406279        2.000000        0.01849293        0.02080043        0.00358021        0.00263500        0.00054108        0.00256576        0.00101653        0.00073371        0.00106273
      43         -0.403855        2.000000        0.20037519        0.08961644        0.04298708        0.10385875        0.01794137        0.01233826        0.01345963        0.01414642        0.01622361
      44         -0.402429        2.000000        0.03035829        0.01252550        0.01146878        0.01558285        0.00365414        0.00188121        0.00225335        0.00284046        0.00200227
      45         -0.401615        2.000000        0.17983590        0.09497647        0.04438295        0.06994164        0.01138872        0.01314708        0.01153788        0.01127853        0.02165400
      46         -0.401015        2.000000        0.15357635        0.08221884        0.03928182        0.05909109        0.00875801        0.01389454        0.00902099        0.00831862        0.01985704
      47         -0.399907        2.000000        0.29487689        0.10210298        0.06597542        0.16333923        0.04176261        0.01376485        0.02042922        0.02252401        0.01401035
      48         -0.399397        2.000000        0.28493334        0.15799207        0.05910403        0.11707721        0.02104465        0.02033981        0.02192554        0.01617441        0.03257530
      49         -0.397545        2.000000        0.25085901        0.12937474        0.06060232        0.10589634        0.01666130        0.02014751        0.01386680        0.01440926        0.02843088
      50         -0.396995        2.000000        0.29180931        0.11234337        0.07244904        0.15418121        0.03593689        0.01358317        0.02141678        0.02195597        0.01908448
      51         -0.385490        2.000000        0.03756129        0.00791102        0.08775947        0.01031734        0.00220633        0.00287512        0.00781302        0.00436834        0.00232073
      52         -0.380399        2.000000        0.06518647        0.01848701        0.16300793        0.00361719        0.00075460        0.00978837        0.00928337        0.00102930        0.00494604
      53         -0.378073        2.000000        0.05002204        0.00583122        0.16309650        0.00428861        0.00117498        0.00437268        0.00769730        0.00307007        0.00176386
      54         -0.377048        2.000000        0.06604771        0.01032273        0.11764709        0.01689985        0.00541405        0.00350801        0.00982477        0.00904363        0.00255489
      55         -0.374925        2.000000        0.07131206        0.01218203        0.13524998        0.01258665        0.00366148        0.00696022        0.00978328        0.00652950        0.00381075
      56         -0.372942        2.000000        0.11605324        0.01749805        0.21539542        0.02811068        0.00735040        0.00710613        0.01479493        0.01338179        0.00362398
      57         -0.371539        2.000000        0.05947353        0.01950899        0.13524754        0.00320351        0.00077690        0.00738310        0.00842629        0.00201488        0.00446901
      58         -0.366111        2.000000        0.14413160        0.04047643        0.20705240        0.02645514        0.00675909        0.01412856        0.01733083        0.00679767        0.00962804
      59         -0.365225        2.000000        0.11026137        0.01597453        0.16836214        0.02872345        0.00788986        0.00573252        0.01216392        0.01029278        0.00393474
      60         -0.363789        2.000000        0.13528254        0.02228726        0.20073923        0.03347047        0.00877903        0.00660776        0.01523589        0.01440543        0.00561738
      61         -0.361709        2.000000        0.11421829        0.02801730        0.15742858        0.02016318        0.00508987        0.00912140        0.01220619        0.00715960        0.00661647
      62         -0.361180        2.000000        0.11545593        0.01818218        0.16107922        0.03595935        0.00831033        0.00491127        0.01368921        0.01199765        0.00409081
      63         -0.358839        2.000000        0.12838967        0.04297082        0.18653473        0.01631118        0.00388961        0.01342777        0.01483499        0.00548630        0.01072244
      64         -0.353777        2.000000        0.09429422        0.00830643        0.25725474        0.01285193        0.00244248        0.00283066        0.01048966        0.00432599        0.00204539
      65         -0.280682        2.000000        0.00542081        0.09105948        0.39196481        0.19387713        0.00320986        0.00417532        0.02072881        0.00619892        0.00329118
      66         -0.279431        2.000000        0.00336996        0.08830955        0.38722748        0.18243510        0.00118081        0.00306372        0.01913265        0.00421547        0.00132943
      67         -0.275423        2.000000        0.00715452        0.19476342        0.39263139        0.07807962        0.00609417        0.00358067        0.01812886        0.00371196        0.00271809
      68         -0.273151        2.000000        0.01315976        0.07693452        0.31416351        0.12387092        0.00983765        0.00618968        0.01635092        0.00534677        0.01270555
      69         -0.270207        2.000000        0.01125454        0.08677522        0.26658676        0.09808196        0.00978893        0.00426323        0.01060021        0.00341900        0.00730252
      70         -0.269014        2.000000        0.01429707        0.09561239        0.30262420        0.09787301        0.01181318        0.00526098        0.01278361        0.00348910        0.00873044
      71         -0.267219        2.000000        0.01332100        0.09335142        0.28792549        0.15079980        0.00737096        0.00938666        0.02114494        0.00190345        0.01522386
      72         -0.265337        2.000000        0.00696148        0.04697041        0.15213990        0.04250308        0.00321087        0.00350459        0.00880414        0.00172860        0.00669936
      73         -0.264008        2.000000        0.00946564        0.06896614        0.15442488        0.09953238        0.00603028        0.00620312        0.00757379        0.00284820        0.00977222
      74         -0.262865        2.000000        0.01529169        0.07317754        0.31048627        0.13039873        0.01236407        0.00612436        0.01745785        0.00379012        0.01112912
      75         -0.262161        2.000000        0.01081552        0.06592401        0.19691829        0.09214682        0.00893398        0.00482563        0.01719680        0.00298033        0.00726260
      76         -0.261252        2.000000        0.01749764        0.06809459        0.32217989        0.15573411        0.01462833        0.00537342        0.01615097        0.00365690        0.01371535
      77         -0.258574        2.000000        0.00859742        0.14366063        0.24892678        0.15197159        0.01187434        0.00835397        0.03856237        0.00614776        0.00698333
      78         -0.256350        2.000000        0.01424367        0.13678596        0.25515944        0.11505461        0.01063011        0.00653225        0.05376376        0.00583491        0.00947537
      79         -0.255440        2.000000        0.01722785        0.09995316        0.20056430        0.14004962        0.01417345        0.00439023        0.02803758        0.00478634        0.00803241
      80         -0.255148        2.000000        0.00942199        0.13859184        0.17005137        0.08782524        0.00437025        0.00702166        0.03585413        0.00343369        0.00957386
      81         -0.253958        2.000000        0.01785453        0.12821032        0.15863789        0.10365416        0.01039001        0.00427336        0.03108571        0.00424063        0.00965121
      82         -0.251765        2.000000        0.00376767        0.14866511        0.21183545        0.11491102        0.00767868        0.00884474        0.04278479        0.00906667        0.00186546
      83         -0.251622        2.000000        0.01258605        0.19270553        0.22122556        0.11351784        0.00886565        0.00350067        0.04570598        0.01178716        0.01016497
      84         -0.251073        2.000000        0.02573116        0.07302690        0.22727008        0.13762327        0.01761450        0.00322125        0.04258990        0.00311333        0.01087451
      85         -0.249927        2.000000        0.01070628        0.05114098        0.08061342        0.08090384        0.00762415        0.00185386        0.01466794        0.00286562        0.00498715
      86         -0.249548        2.000000        0.01409166        0.09918504        0.18879489        0.10001331        0.01066519        0.00558513        0.04206953        0.00442065        0.00878504
      87         -0.249345        2.000000        0.01302221        0.14899180        0.22132992        0.13643820        0.01222911        0.01115583        0.03968647        0.00810030        0.00949100
      88         -0.247862        2.000000        0.01274353        0.12547210        0.11280219        0.09339393        0.00939114        0.00234934        0.02034946        0.00604942        0.00866992
      89         -0.247583        2.000000        0.00892724        0.09168708        0.13354941        0.08553317        0.01290000        0.00367544        0.02637408        0.00652905        0.00491636
      90         -0.246778        2.000000        0.01215622        0.08699497        0.19485740        0.11305072        0.00796611        0.00509909        0.03224198        0.00534111        0.00842328
      91         -0.245826        2.000000        0.02183351        0.12331982        0.17408932        0.09432135        0.01241588        0.00326136        0.03855175        0.00550812        0.01383551
      92         -0.245244        2.000000        0.02151744        0.17857483        0.18202033        0.10285907        0.00861176        0.00506643        0.03948497        0.00505845        0.02494328
      93         -0.244471        2.000000        0.01211285        0.07120677        0.12425691        0.04142962        0.00628475        0.00303959        0.02722277        0.00401147        0.00770168
      94         -0.243640        2.000000        0.01842093        0.12521954        0.23677207        0.10881301        0.01215977        0.00726428        0.03899746        0.00783517        0.01733420
      95         -0.243117        2.000000        0.01575242        0.09756443        0.22281570        0.09450633        0.01037073        0.00925120        0.05111412        0.00535572        0.01070518
      96         -0.242586        2.000000        0.01983098        0.12112630        0.16647679        0.11324967        0.01477165        0.00481477        0.02749897        0.00530338        0.01480463
      97         -0.241680        2.000000        0.01204935        0.07943932        0.15119332        0.07633919        0.00738938        0.00347636        0.03163373        0.00241689        0.01427862
      98         -0.240486        2.000000        0.01712817        0.10483009        0.12762693        0.10486102        0.01175277        0.00384940        0.02850580        0.00241892        0.01525536
      99         -0.239656        2.000000        0.01767659        0.07520685        0.17778162        0.12442110        0.01592495        0.00482460        0.04344697        0.00348400        0.00895483
     100         -0.238347        2.000000        0.00981355        0.03685785        0.14095758        0.06919778        0.00718060        0.00328214        0.04010078        0.00299471        0.00553992
     101         -0.238185        2.000000        0.01406485        0.08728679        0.18072391        0.10955284        0.01274454        0.00512475        0.05096238        0.00565284        0.01061636
     102         -0.237636        2.000000        0.01118575        0.10043575        0.13868257        0.03114352        0.00494863        0.00353157        0.03110533        0.00336601        0.01055939
     103         -0.235941        2.000000        0.00955055        0.06672280        0.09810384        0.06379610        0.00693613        0.00224331        0.02866408        0.00259517        0.00755942
     104         -0.235545        2.000000        0.00498912        0.04279075        0.16106320        0.04065624        0.00387644        0.00447843        0.05136301        0.00353140        0.00355689
     105         -0.234412        2.000000        0.02477906        0.13042371        0.19421262        0.12216706        0.01466095        0.00480348        0.04376230        0.00517441        0.02278368
     106         -0.233614        2.000000        0.00607831        0.06319097        0.14624189        0.06166208        0.00755274        0.00624341        0.03019817        0.00399478        0.00632303
     107         -0.233146        2.000000        0.01087219        0.14979642        0.13160406        0.15602070        0.01406945        0.01025877        0.01776977        0.00735744        0.01496414
     108         -0.231613        2.000000        0.00827781        0.07706901        0.11655681        0.12476012        0.00833581        0.00663082        0.02793465        0.00454659        0.01286226
     109         -0.231331        2.000000        0.01090293        0.05688811        0.15205617        0.05305272        0.01045992        0.00492049        0.03212492        0.00488168        0.00691429
     110         -0.230667        2.000000        0.01587111        0.10682745        0.18729370        0.05440014        0.00940036        0.00432105        0.04088267        0.00407948        0.01486528
     111         -0.229192        2.000000        0.00647919        0.03130201        0.13194796        0.07742819        0.00658782        0.00476112        0.03242955        0.00419030        0.00762094
     112         -0.227905        2.000000        0.00875361        0.05978512        0.09141364        0.04060991        0.00501979        0.00352841        0.01768870        0.00417808        0.00823829
     113         -0.227169        2.000000        0.00825197        0.08785317        0.13112014        0.05401161        0.01099780        0.00487761        0.03047280        0.00446335        0.00569213
     114         -0.226190        2.000000        0.01021066        0.10087484        0.11576640        0.19347710        0.01122357        0.00981915        0.01571862        0.00669904        0.01790624
     115         -0.225738        2.000000        0.00600715        0.04389139        0.10299443        0.06335045        0.00750977        0.00370912        0.02710790        0.00414082        0.00547767
     116         -0.224481        2.000000        0.00881742        0.10180188        0.11082545        0.09314532        0.01305652        0.00393643        0.02484992        0.00644084        0.01066413
     117         -0.224060        2.000000        0.00372809        0.04165351        0.09647502        0.06295912        0.00643500        0.00593375        0.02149550        0.00426606        0.00565931
     118         -0.223333        2.000000        0.00563460        0.10747026        0.10193720        0.06765084        0.01129081        0.00418348        0.01603016        0.00706760        0.00765954
     119         -0.222569        2.000000        0.00867234        0.09870530        0.12695406        0.07526108        0.01257771        0.00497333        0.02383416        0.00638567        0.00870454
     120         -0.221615        2.000000        0.00392130        0.07402890        0.08329968        0.04621613        0.00964021        0.00377490        0.01075728        0.00505141        0.00485772
     121         -0.221240        2.000000        0.00726409        0.07926670        0.10182993        0.05055866        0.01031066        0.00380580        0.02176737        0.00553871        0.00685877
     122         -0.219856        2.000000        0.00369144        0.03480126        0.06998154        0.03899527        0.00466707        0.00261076        0.01763558        0.00264636        0.00376057
     123         -0.219269        2.000000        0.00777835        0.09400563        0.15235941        0.05835278        0.01343313        0.00621025        0.03685548        0.00760941        0.00670897
     124         -0.218535        2.000000        0.00271524        0.02461636        0.05175098        0.02613302        0.00446875        0.00194366        0.01205919        0.00187043        0.00196082
     125         -0.215583        2.000000        0.00497196        0.03611146        0.09814000        0.02784574        0.00459664        0.00287194        0.02465719        0.00283676        0.00538483
     126         -0.214202        2.000000        0.00214651        0.02605927        0.08029710        0.01910043        0.00277433        0.00296626        0.01951378        0.00213266        0.00393956
     127         -0.212808        2.000000        0.00470070        0.05162862        0.10340846        0.02495890        0.00672528        0.00344749        0.02869318        0.00344945        0.00275032
     128         -0.212502        2.000000        0.00200841        0.01457399        0.03550286        0.01894185        0.00277513        0.00152452        0.00537423        0.00134810        0.00256723
     129         -0.208773        2.000000        0.00177593        0.01450784        0.06228119        0.01568245        0.00205515        0.00201172        0.01514226        0.00173855        0.00251169
     130         -0.207679        2.000000        0.00449389        0.02675953        0.08695551        0.03212133        0.00690830        0.00239027        0.02073332        0.00395070        0.00266225
     131         -0.206113        2.000000        0.00316832        0.02973754        0.06900484        0.01840781        0.00320444        0.00279706        0.01878633        0.00293796        0.00287249
     132         -0.204166        2.000000        0.00089341        0.01819395        0.04146925        0.01594765        0.00104278        0.00201848        0.01014267        0.00079516        0.00214540
     133         -0.201946        2.000000        0.00065208        0.01502303        0.03278474        0.01624511        0.00130646        0.00124170        0.00839359        0.00110997        0.00133408
     134         -0.201446        2.000000        0.00095120        0.01289103        0.03326771        0.01751957        0.00199834        0.00138066        0.00761937        0.00150747        0.00081580
     135         -0.199276        2.000000        0.00239781        0.01794484        0.06140810        0.01738302        0.00203487        0.00142373        0.02121425        0.00228180        0.00110173
     136         -0.198092        2.000000        0.00168879        0.01005298        0.04518801        0.01533744        0.00156865        0.00126709        0.01275712        0.00113044        0.00154627
     137         -0.195166        2.000000        0.00048234        0.03246182        0.01370670        0.06743004        0.00167736        0.00136846        0.00265555        0.00269954        0.00111914
     138         -0.194810        2.000000        0.00048043        0.01642835        0.01629916        0.01526644        0.00103050        0.00090487        0.00324101        0.00100031        0.00079384
     139         -0.193343        2.000000        0.00143616        0.54039451        0.02960865        0.23962679        0.00509648        0.01746566        0.00409406        0.00976527        0.01110581
     140         -0.191450        2.000000        0.00190183        0.08288049        0.02685061        0.71083581        0.01461486        0.00399412        0.00586301        0.02345019        0.00395593
     141         -0.188232        2.000000        0.00215363        0.61534552        0.02510033        0.23370126        0.00616204        0.01919943        0.00519939        0.01200215        0.01065930
     142         -0.176580        2.000000        0.00199850        0.07034295        0.01777498        0.74518801        0.07056423        0.00337777        0.00396279        0.02345199        0.00839340
     143         -0.170686        2.000000        0.00089458        0.52172267        0.01212619        0.30620387        0.03082971        0.01428444        0.00180322        0.00987298        0.05183473
     144         -0.169092        2.000000        0.00123394        0.59115501        0.02371456        0.21502682        0.02105180        0.01672803        0.00446847        0.00861408        0.06100515