# Projected DOS for atomic kind Si at iteration step i = 0, E(Fermi) =    -0.096079 a.u.
#     MO Eigenvalue [a.u.]      Occupation                 s                py                pz                px               d-2               d-1                d0               d+1               d+2
       1         -0.559288        2.000000        0.01024409        0.00027363        0.00164341        0.00016643        0.00001985        0.00003603        0.00011865        0.00002531        0.00001491
       2         -0.541713        2.000000        0.65182420        0.00289920        0.02635152        0.00248118        0.00077462        0.00039772        0.02959977        0.00024598        0.00059212
       3         -0.538038        2.000000        0.00762154        0.00138205        0.00133623        0.00239688        0.00020067        0.00009453        0.00033145        0.00015306        0.00008260
       4         -0.535939        2.000000        0.00600489        0.00200349        0.00121612        0.00101793        0.00006963        0.00014526        0.00024072        0.00007514        0.00014856
       5         -0.531287        2.000000        0.00787342        0.00173288        0.00082599        0.00227610        0.00016496        0.00010791        0.00014292        0.00013040        0.00016302
       6         -0.529838        2.000000        0.01142576        0.00348360        0.00092538        0.00275239        0.00026492        0.00015640        0.00013563        0.00014189        0.00030671
       7         -0.527141        2.000000        0.01323834        0.00480450        0.00082185        0.00255524        0.00025957        0.00023394        0.00010884        0.00012976        0.00041510
       8         -0.522227        2.000000        0.04113477        0.00780970        0.00118889        0.01209234        0.00123843        0.00042657        0.00039148        0.00040691        0.00088927
       9         -0.520938        2.000000        0.47111852        0.12708585        0.01340240        0.08103745        0.01042567        0.00647350        0.00711046        0.00380527        0.01602483
      10         -0.517940        2.000000        0.49190225        0.13260832        0.00883269        0.08701560        0.01101225        0.00625033        0.00829458        0.00445358        0.01588373
      11         -0.516031        2.000000        0.49297161        0.06747198        0.01183985        0.15184244        0.01841754        0.00302716        0.00660518        0.00804990        0.00804520
      12         -0.514470        2.000000        0.49384434        0.08210904        0.01136741        0.14144904        0.01731138        0.00463258        0.00664920        0.00626107        0.01086858
      13         -0.512182        2.000000        0.49714335        0.09006914        0.00958004        0.13573615        0.01626120        0.00427263        0.00646069        0.00721095        0.01204748
      14         -0.509300        2.000000        0.49947907        0.15966929        0.00790530        0.07165727        0.00907742        0.00813597        0.00648754        0.00320396        0.01966264
      15         -0.492131        2.000000        0.00171816        0.00133700        0.00051118        0.00060687        0.00015107        0.00022716        0.00013360        0.00014140        0.00013061
      16         -0.487670        2.000000        0.00318926        0.00107110        0.00055553        0.00225396        0.00025244        0.00018203        0.00017568        0.00023957        0.00028560
      17         -0.486703        2.000000        0.00154798        0.00050568        0.00037798        0.00138321        0.00012717        0.00012971        0.00013040        0.00023768        0.00014691
      18         -0.484043        2.000000        0.00401160        0.00218918        0.00035844        0.00164014        0.00032862        0.00018740        0.00015068        0.00021179        0.00029678
      19         -0.481845        2.000000        0.00760361        0.00413052        0.00038679        0.00284751        0.00066667        0.00030314        0.00017121        0.00028481        0.00055262
      20         -0.481081        2.000000        0.00671019        0.00229592        0.00071219        0.00351051        0.00062356        0.00038265        0.00022750        0.00043057        0.00057606
      21         -0.479659        2.000000        0.00563745        0.00260313        0.00044097        0.00290784        0.00044716        0.00032514        0.00019823        0.00027683        0.00047815
      22         -0.476226        2.000000        0.23500726        0.08746934        0.00134588        0.10327527        0.02015458        0.00548639        0.00072938        0.00776756        0.01948752
      23         -0.475176        2.000000        0.17594620        0.06501619        0.00118974        0.07459029        0.01488956        0.00542668        0.00042961        0.00567133        0.01429976
      24         -0.472761        2.000000        0.37466427        0.14972150        0.00116668        0.15521758        0.02862408        0.01114338        0.00100632        0.01263234        0.03387820
      25         -0.471802        2.000000        0.16542661        0.07264457        0.00108178        0.05846833        0.01315657        0.00557566        0.00042503        0.00370848        0.01604956
      26         -0.470875        2.000000        0.23044968        0.10049756        0.00110340        0.07859072        0.02068570        0.00772401        0.00052808        0.00573602        0.02112602
      27         -0.469230        2.000000        0.39654109        0.19836248        0.00204975        0.09142432        0.02397690        0.01503467        0.00117935        0.00774351        0.06181498
      28         -0.468983        2.000000        0.40399923        0.17266119        0.00138919        0.13527746        0.04262613        0.01508268        0.00076974        0.00933204        0.03233026
      29         -0.467687        2.000000        0.40287408        0.08445776        0.00077373        0.20126736        0.06480932        0.00736344        0.00159579        0.01625378        0.02948658
      30         -0.465162        2.000000        0.39857218        0.12250820        0.00125425        0.18660708        0.03971983        0.00873590        0.00130721        0.01493199        0.03221357
      31         -0.464885        2.000000        0.40548204        0.17132406        0.00131308        0.10874813        0.03050826        0.01528076        0.00149915        0.00729691        0.06361052
      32         -0.462422        2.000000        0.40588740        0.09822343        0.00208467        0.17741101        0.06191366        0.00709025        0.00116393        0.01655689        0.03854804
      33         -0.423754        2.000000        0.00759514        0.00340205        0.00286771        0.00797355        0.00025570        0.00033031        0.00069275        0.00068192        0.00007570
      34         -0.421620        2.000000        0.00722407        0.00359914        0.00300809        0.00799712        0.00016683        0.00046885        0.00076231        0.00067552        0.00010511
      35         -0.419262        2.000000        0.01548525        0.01938481        0.00677513        0.00188939        0.00028964        0.00183716        0.00153104        0.00043677        0.00072167
      36         -0.412280        2.000000        0.01063526        0.00684554        0.00449871        0.00556992        0.00077403        0.00122267        0.00098117        0.00110447        0.00050647
      37         -0.410422        2.000000        0.23079474        0.09720381        0.04317399        0.18993732        0.01057291        0.01379288        0.01093814        0.01984207        0.00412570
      38         -0.409947        2.000000        0.13346689        0.04571232        0.02445162        0.12860181        0.00475235        0.00530028        0.00709967        0.01347912        0.00176965
      39         -0.409194        2.000000        0.01134366        0.00534954        0.00503980        0.00643139        0.00055589        0.00135497        0.00111054        0.00094845        0.00098570
      40         -0.407959        2.000000        0.16075105        0.17569881        0.02791658        0.03850527        0.00198690        0.01810583        0.00882679        0.00431250        0.00611040
      41         -0.407544        2.000000        0.17214401        0.13858342        0.03241168        0.08014230        0.00379144        0.01488580        0.00919521        0.01001761        0.00583523
      42         -0.406737        2.000000        0.09194464        0.03234661        0.01610850        0.08659649        0.00336298        0.00430727        0.00476722        0.00982399        0.00164246
      43         -0.405555        2.000000        0.06235538        0.03961841        0.01497314        0.02757180        0.00356818        0.00614041        0.00387226        0.00371485        0.00450436
      44         -0.404398        2.000000        0.03940153        0.01772054        0.01054472        0.02252436        0.00242357        0.00287212        0.00254019        0.00410805        0.00195020
      45         -0.401440        2.000000        0.26063571        0.11641218        0.05884455        0.12713261        0.02563959        0.01621173        0.01645986        0.01920606        0.01811001
      46         -0.399164        2.000000        0.27873355        0.14741590        0.07146235        0.09487086        0.01651720        0.02412035        0.01589897        0.01607242        0.03086688
      47         -0.398108        2.000000        0.29595449        0.14041962        0.07280426        0.12370821        0.02133415        0.02043379        0.01980219        0.02055481        0.03008593
      48         -0.397804        2.000000        0.28428510        0.09505427        0.06881240        0.16752054        0.03420984        0.01558990        0.01946176        0.02425085        0.01352599
      49         -0.395362        2.000000        0.29782406        0.15071145        0.06037294        0.12891942        0.02396391        0.01771734        0.02291554        0.01756818        0.03136581
      50         -0.393595        2.000000        0.29627998        0.13411062        0.06442448        0.13876990        0.02833251        0.01687207        0.02367244        0.01791964        0.02714715
      51         -0.388447        2.000000        0.03663575        0.00925515        0.08221923        0.01157426        0.00240764        0.00221699        0.00689921        0.00319590        0.00190201
      52         -0.382542        2.000000        0.03490951        0.00895065        0.07007769        0.00583019        0.00127652        0.00517986        0.00591235        0.00254897        0.00206850
      53         -0.380049        2.000000        0.03507422        0.00503942        0.08827946        0.00645460        0.00174237        0.00273898        0.00601831        0.00430910        0.00125473
      54         -0.377545        2.000000        0.03633981        0.00567845        0.08049949        0.00810855        0.00238261        0.00285963        0.00660454        0.00448404        0.00172489
      55         -0.376334        2.000000        0.09817380        0.01613191        0.24657950        0.01127566        0.00369628        0.00646493        0.01065543        0.00862354        0.00354629
      56         -0.374899        2.000000        0.08824352        0.02132125        0.15861045        0.01014656        0.00260843        0.01131394        0.01138610        0.00509333        0.00594159
      57         -0.368864        2.000000        0.09061595        0.01517666        0.17276674        0.01501665        0.00378032        0.00751832        0.01207478        0.00877890        0.00450272
      58         -0.366123        2.000000        0.15877825        0.02898517        0.24692948        0.03717142        0.01020864        0.00897352        0.01725173        0.01428314        0.00567098
      59         -0.363744        2.000000        0.16202851        0.02731667        0.25145347        0.03770273        0.00848052        0.01050113        0.01766748        0.01603916        0.00716945
      60         -0.363392        2.000000        0.12689849        0.03617407        0.18079320        0.01319060        0.00368305        0.01235821        0.01338471        0.00520255        0.00879737
      61         -0.361842        2.000000        0.14514144        0.02922697        0.20859660        0.03198266        0.00757358        0.01038109        0.01591433        0.01066527        0.00736425
      62         -0.360588        2.000000        0.12468408        0.01970671        0.19113003        0.03155639        0.00783955        0.00706323        0.01388389        0.00958995        0.00502702
      63         -0.357997        2.000000        0.11447935        0.02625909        0.16346310        0.02237180        0.00456393        0.01011044        0.01333004        0.00648502        0.00658763
      64         -0.354375        2.000000        0.07450696        0.00692924        0.22382622        0.00442593        0.00050525        0.00194809        0.00678585        0.00077605        0.00120439
      65         -0.278709        2.000000        0.00549823        0.09955262        0.36148255        0.17160054        0.00158735        0.00329232        0.01555303        0.00378250        0.00336949
      66         -0.276996        2.000000        0.00475663        0.10021769        0.38205881        0.19929539        0.00327644        0.00301354        0.01710473        0.00389681        0.00215744
      67         -0.275156        2.000000        0.00634730        0.22317993        0.36651788        0.04992963        0.00407572        0.00394863        0.01838739        0.00169808        0.00203560
      68         -0.270731        2.000000        0.01433299        0.09529305        0.24982955        0.09483460        0.00692267        0.00730806        0.01030705        0.00193468        0.01528374
      69         -0.270359        2.000000        0.00983998        0.05142587        0.20171670        0.08124394        0.00942873        0.00338492        0.00820912        0.00331763        0.00507295
      70         -0.267377        2.000000        0.00675567        0.05697633        0.21366835        0.08155348        0.00783136        0.00193400        0.00982695        0.00296202        0.00443958
      71         -0.266277        2.000000        0.01238924        0.06122622        0.22074552        0.10065658        0.01041514        0.00314814        0.00908142        0.00338154        0.00919125
      72         -0.264668        2.000000        0.01398079        0.10268658        0.25061990        0.11188648        0.00642839        0.00690902        0.01043421        0.00215259        0.01625557
      73         -0.262561        2.000000        0.01408987        0.08028028        0.29994583        0.11255624        0.01124838        0.00435992        0.01255100        0.00356319        0.01074862
      74         -0.261885        2.000000        0.01025620        0.09084991        0.22902481        0.08142773        0.00854231        0.00324086        0.01126824        0.00266683        0.00969255
      75         -0.259753        2.000000        0.01285286        0.06741725        0.24737929        0.11882077        0.01017010        0.00370035        0.00974947        0.00196262        0.01211944
      76         -0.259363        2.000000        0.00905222        0.06967274        0.22810040        0.12588746        0.01025285        0.00693718        0.01848258        0.00254384        0.00537439
      77         -0.257384        2.000000        0.01327228        0.10818146        0.28044851        0.16566180        0.01294435        0.00773630        0.04930975        0.00383026        0.00612215
      78         -0.255267        2.000000        0.01076094        0.13131952        0.16612420        0.06340182        0.00698477        0.00416859        0.02702029        0.00375461        0.00907547
      79         -0.254393        2.000000        0.00721658        0.11066451        0.19278231        0.17199083        0.00708434        0.00678180        0.04106360        0.00611426        0.00675352
      80         -0.253683        2.000000        0.00550379        0.09960124        0.17882666        0.01776691        0.00446985        0.00406753        0.02422388        0.00561785        0.00458926
      81         -0.253010        2.000000        0.00595136        0.06504603        0.15850461        0.07913768        0.00499802        0.00520289        0.03369481        0.00298493        0.00313506
      82         -0.252237        2.000000        0.01477926        0.08239405        0.22945900        0.09559923        0.01023556        0.00291520        0.05062673        0.00432459        0.00744463
      83         -0.251139        2.000000        0.00673498        0.09868018        0.26852384        0.10263231        0.00556123        0.00933657        0.04949043        0.00926841        0.00547856
      84         -0.250843        2.000000        0.01010775        0.07687281        0.15144342        0.04273810        0.00394597        0.00563111        0.02750374        0.00221995        0.00878062
      85         -0.250257        2.000000        0.01591496        0.11388253        0.21033064        0.08049329        0.01039968        0.00670822        0.03743941        0.00594448        0.00666276
      86         -0.249883        2.000000        0.01034888        0.04943327        0.18293898        0.09276650        0.00839572        0.00473237        0.04461413        0.00512236        0.00434430
      87         -0.248687        2.000000        0.00865414        0.06044013        0.18993200        0.05073958        0.00793043        0.00376786        0.04172586        0.00651790        0.00510127
      88         -0.247725        2.000000        0.01141609        0.11655953        0.14840328        0.11965292        0.01061705        0.00423713        0.02694164        0.00630344        0.00674526
      89         -0.246929        2.000000        0.01181736        0.06849114        0.23713671        0.11928411        0.01040644        0.00633777        0.04444854        0.00547838        0.00509764
      90         -0.246491        2.000000        0.01318321        0.06797823        0.18662137        0.06479944        0.00895798        0.00417608        0.05240357        0.00328875        0.00451991
      91         -0.245473        2.000000        0.00953560        0.06009493        0.15958158        0.06220646        0.00528889        0.00556950        0.03409295        0.00410009        0.00701995
      92         -0.244581        2.000000        0.01457746        0.08439723        0.16708330        0.10135268        0.01082606        0.00581038        0.04009214        0.00570678        0.00593497
      93         -0.244018        2.000000        0.02458510        0.21803553        0.20512879        0.08696128        0.00695336        0.00681249        0.04519334        0.00448146        0.02795560
      94         -0.243366        2.000000        0.02123710        0.16114472        0.17051217        0.08280139        0.01110988        0.00616545        0.02837627        0.00428288        0.01528894
      95         -0.242359        2.000000        0.01124738        0.06086348        0.19068438        0.09042992        0.01113331        0.00478937        0.04105366        0.00516238        0.00671207
      96         -0.241948        2.000000        0.01444156        0.05663490        0.09269859        0.11625671        0.01335650        0.00189435        0.01542099        0.00337912        0.00713892
      97         -0.240843        2.000000        0.02178202        0.09907312        0.18975181        0.11096300        0.01388467        0.00445147        0.02816432        0.00463426        0.01339959
      98         -0.240376        2.000000        0.00984630        0.10945956        0.14762934        0.05706573        0.00552619        0.00395474        0.04121458        0.00638293        0.00712806
      99         -0.239508        2.000000        0.01155832        0.11883347        0.19204011        0.11038228        0.01068702        0.00727042        0.04969926        0.00530082        0.00929470
     100         -0.238511        2.000000        0.01000219        0.03803367        0.09299092        0.06401293        0.00535151        0.00302745        0.01804807        0.00317565        0.00794947
     101         -0.237668        2.000000        0.02993615        0.12728834        0.17326376        0.15992967        0.01982163        0.00500223        0.02083015        0.00159134        0.02077587
     102         -0.236684        2.000000        0.02346422        0.12688485        0.22050881        0.08966632        0.01186478        0.00593029        0.05582480        0.00366802        0.01884861
     103         -0.236015        2.000000        0.01162600        0.05291959        0.15904578        0.06751741        0.00849654        0.00313191        0.04972286        0.00364531        0.00873246
     104         -0.234664        2.000000        0.02996644        0.12110217        0.18270368        0.12467323        0.01909049        0.00301194        0.03195517        0.00423618        0.01916962
     105         -0.234451        2.000000        0.01178336        0.05847424        0.11936476        0.12770767        0.01270988        0.00555519        0.03079386        0.00295997        0.00787932
     106         -0.233583        2.000000        0.02105299        0.13458019        0.15179106        0.06681065        0.00749025        0.00392274        0.02183547        0.00308117        0.02241569
     107         -0.232833        2.000000        0.01134405        0.06200206        0.13437402        0.06235075        0.00732182        0.00447240        0.03590027        0.00328018        0.00806437
     108         -0.231848        2.000000        0.00858565        0.09247653        0.13743546        0.08181119        0.01123300        0.00462847        0.03267812        0.00530226        0.00878121
     109         -0.231559        2.000000        0.00881965        0.05550432        0.12516013        0.11982349        0.00911868        0.00527462        0.02381968        0.00225722        0.01068137
     110         -0.230664        2.000000        0.00519398        0.09334075        0.11460073        0.07242764        0.00555703        0.00791444        0.02623973        0.00381080        0.00914522
     111         -0.229517        2.000000        0.01606875        0.07880267        0.19561272        0.08959848        0.01333977        0.00764827        0.05088098        0.00303982        0.00994854
     112         -0.229156        2.000000        0.01039234        0.12550185        0.11006756        0.08039019        0.01185992        0.00632004        0.01432015        0.00466358        0.01294347
     113         -0.227926        2.000000        0.00755633        0.05961510        0.14932299        0.09699802        0.00796848        0.00633605        0.02844923        0.00613323        0.01134227
     114         -0.226912        2.000000        0.00770647        0.06724627        0.11755747        0.09443295        0.00905452        0.00635399        0.02637889        0.00400797        0.00920274
     115         -0.226076        2.000000        0.00942496        0.06257931        0.13636955        0.07658246        0.01056488        0.00510169        0.02785796        0.00538018        0.00744886
     116         -0.225485        2.000000        0.00677010        0.06513358        0.12137473        0.06134254        0.00548754        0.00522923        0.03406961        0.00430000        0.00789291
     117         -0.224556        2.000000        0.00601199        0.05030769        0.09814522        0.08195999        0.00568776        0.00593116        0.03164978        0.00296323        0.00822897
     118         -0.224305        2.000000        0.00508552        0.13534015        0.07588405        0.10038856        0.01271613        0.00506281        0.01025385        0.00632636        0.00983813
     119         -0.222526        2.000000        0.00663671        0.05971728        0.10259041        0.04105153        0.00929168        0.00436127        0.02522113        0.00391635        0.00491483
     120         -0.221728        2.000000        0.00715887        0.15656540        0.12862103        0.11656180        0.01547330        0.00870843        0.02014437        0.00919973        0.01236800
     121         -0.220881        2.000000        0.01790965        0.14256599        0.18355812        0.15530155        0.01871973        0.00788481        0.03385385        0.00932125        0.01823056
     122         -0.219580        2.000000        0.00811038        0.14100200        0.09902620        0.09375114        0.01339670        0.00604042        0.01194146        0.00604000        0.01418009
     123         -0.219350        2.000000        0.00512859        0.10953064        0.09429854        0.08693745        0.01415198        0.00642936        0.01524671        0.00657832        0.00700012
     124         -0.218242        2.000000        0.00337897        0.04443489        0.06084897        0.05183170        0.00430116        0.00461361        0.01398935        0.00286807        0.00558932
     125         -0.217622        2.000000        0.00473932        0.02137054        0.07253124        0.04577669        0.00598732        0.00359555        0.01748351        0.00197132        0.00349141
     126         -0.215456        2.000000        0.00670740        0.12982681        0.12153434        0.02998739        0.01431351        0.00540633        0.02746578        0.00659151        0.00451505
     127         -0.212757        2.000000        0.00391021        0.01545572        0.06772054        0.03867171        0.00525010        0.00303244        0.01416797        0.00207906        0.00301021
     128         -0.211625        2.000000        0.00329885        0.02522647        0.06615112        0.01558750        0.00256392        0.00191603        0.01448403        0.00128886        0.00508064
     129         -0.209621        2.000000        0.00178000        0.01728519        0.05428268        0.02869477        0.00357129        0.00220173        0.01195281        0.00220435        0.00261731
     130         -0.208333        2.000000        0.00474927        0.01565611        0.09202046        0.03916677        0.00634087        0.00286183        0.02313023        0.00274519        0.00297880
     131         -0.205517        2.000000        0.00175451        0.02565541        0.04452166        0.01318796        0.00175737        0.00219742        0.00989633        0.00178126        0.00272765
     132         -0.204688        2.000000        0.00309663        0.01212439        0.06831367        0.01405841        0.00225300        0.00250130        0.02007136        0.00141668        0.00256836
     133         -0.202773        2.000000        0.00152266        0.01007855        0.04968876        0.00959643        0.00160490        0.00149148        0.01501661        0.00165874        0.00138436
     134         -0.199848        2.000000        0.00095897        0.01133435        0.02859185        0.00721539        0.00199567        0.00118676        0.00485222        0.00134384        0.00072927
     135         -0.198990        2.000000        0.00118073        0.00946354        0.03107736        0.00941341        0.00082456        0.00125281        0.00821058        0.00078622        0.00102863
     136         -0.196999        2.000000        0.00048075        0.00563583        0.02147633        0.01322077        0.00074555        0.00066489        0.00482956        0.00076133        0.00044953
     137         -0.195904        2.000000        0.00080898        0.01941193        0.02882010        0.02008199        0.00125820        0.00155569        0.00534838        0.00129310        0.00175177
     138         -0.195441        2.000000        0.00036013        0.01966390        0.01139713        0.01294608        0.00049860        0.00089404        0.00201594        0.00061035        0.00103190
     139         -0.189656        2.000000        0.00189548        0.48997798        0.02295024        0.36462465        0.00898788        0.01574391        0.00247374        0.01407499        0.00833818
     140         -0.187922        2.000000        0.00157371        0.16121852        0.02646503        0.66749841        0.01017213        0.00691230        0.00478479        0.02409966        0.00618029
     141         -0.185334        2.000000        0.00209433        0.63634216        0.01982760        0.22849924        0.00506659        0.02108460        0.00224566        0.01109979        0.01035730
     142         -0.171927        2.000000        0.00157460        0.08285959        0.01047751        0.75211489        0.07103729        0.00317089        0.00135225        0.02401715        0.00950326
     143         -0.167935        2.000000        0.00135310        0.52131129        0.01404151        0.30778458        0.02876249        0.01425575        0.00159711        0.01007233        0.05251117
     144         -0.165312        2.000000        0.00094617        0.40592944        0.01659378        0.37543983        0.03391932        0.01337239        0.00233724        0.01310176        0.04109431