# Projected DOS for atomic kind Si at iteration step i = 0, E(Fermi) =    -0.096432 a.u.
#     MO Eigenvalue [a.u.]      Occupation                 s                py                pz                px               d-2               d-1                d0               d+1               d+2
       1         -0.559353        2.000000        0.01000395        0.00025957        0.00166244        0.00016069        0.00001880        0.00003442        0.00011758        0.00002504        0.00001416
       2         -0.541506        2.000000        0.64979757        0.00264219        0.02637397        0.00238070        0.00073035        0.00037805        0.02915940        0.00024413        0.00052225
       3         -0.538026        2.000000        0.00848672        0.00129995        0.00141171        0.00235361        0.00019721        0.00009125        0.00040740        0.00015385        0.00007697
       4         -0.536187        2.000000        0.00656366        0.00192132        0.00126333        0.00103708        0.00007074        0.00014193        0.00028069        0.00007698        0.00013924
       5         -0.531559        2.000000        0.00753303        0.00191998        0.00082632        0.00172483        0.00012348        0.00011432        0.00015711        0.00010487        0.00017259
       6         -0.529879        2.000000        0.01144388        0.00328468        0.00094548        0.00315544        0.00029195        0.00015254        0.00012194        0.00016471        0.00028676
       7         -0.527213        2.000000        0.01358290        0.00480402        0.00083625        0.00269962        0.00027504        0.00023615        0.00010966        0.00013813        0.00042012
       8         -0.522108        2.000000        0.02894169        0.00499349        0.00095495        0.00947609        0.00092595        0.00027251        0.00026024        0.00032727        0.00051910
       9         -0.520456        2.000000        0.48198149        0.12948502        0.01373648        0.08413781        0.01074270        0.00656805        0.00701585        0.00396150        0.01627162
      10         -0.518026        2.000000        0.49258169        0.13219245        0.00873423        0.08704013        0.01094117        0.00632228        0.00817175        0.00450774        0.01589851
      11         -0.515973        2.000000        0.49247912        0.07065809        0.01195017        0.14821233        0.01818485        0.00316110        0.00620319        0.00788759        0.00843249
      12         -0.514093        2.000000        0.49376660        0.08376928        0.01115908        0.13926549        0.01697685        0.00476250        0.00649670        0.00630096        0.01104516
      13         -0.512223        2.000000        0.49521794        0.08498088        0.00950032        0.13980010        0.01664383        0.00412537        0.00625579        0.00760674        0.01127224
      14         -0.509128        2.000000        0.49961247        0.15968974        0.00794005        0.07118547        0.00907333        0.00818880        0.00646270        0.00314525        0.01975541
      15         -0.492368        2.000000        0.00176467        0.00135211        0.00051605        0.00062183        0.00015481        0.00023058        0.00013649        0.00014739        0.00013488
      16         -0.487780        2.000000        0.00327111        0.00116354        0.00056951        0.00222920        0.00026999        0.00018958        0.00017829        0.00024283        0.00028674
      17         -0.486383        2.000000        0.00144669        0.00044680        0.00038257        0.00134524        0.00011560        0.00012289        0.00013146        0.00024769        0.00013938
      18         -0.484430        2.000000        0.00362033        0.00200817        0.00035746        0.00148653        0.00030197        0.00017631        0.00014830        0.00020990        0.00026263
      19         -0.481812        2.000000        0.00635185        0.00363776        0.00036461        0.00229089        0.00056979        0.00029380        0.00015150        0.00025685        0.00045937
      20         -0.481044        2.000000        0.00773907        0.00250716        0.00069522        0.00417483        0.00070285        0.00036986        0.00023780        0.00045886        0.00064317
      21         -0.479353        2.000000        0.00653325        0.00303040        0.00046219        0.00328267        0.00050191        0.00035508        0.00021380        0.00029347        0.00054377
      22         -0.476105        2.000000        0.16973100        0.06354044        0.00110738        0.07428064        0.01426241        0.00394954        0.00063201        0.00576941        0.01428384
      23         -0.475068        2.000000        0.23913758        0.08978007        0.00148646        0.09930880        0.01984459        0.00720943        0.00059469        0.00775713        0.01962990
      24         -0.472665        2.000000        0.38479096        0.14590997        0.00126035        0.16365868        0.02846051        0.01069837        0.00119205        0.01333032        0.03782754
      25         -0.472224        2.000000        0.18708773        0.08596200        0.00093232        0.06151116        0.01615782        0.00657984        0.00049824        0.00418751        0.01628915
      26         -0.471181        2.000000        0.20060241        0.08599018        0.00080445        0.06858315        0.01971284        0.00632150        0.00047955        0.00529762        0.01702407
      27         -0.469242        2.000000        0.39646325        0.18246004        0.00228997        0.10510159        0.02845727        0.01457927        0.00102012        0.00907621        0.05855619
      28         -0.468934        2.000000        0.40340772        0.16800574        0.00138039        0.13945814        0.04206554        0.01494358        0.00088425        0.00930439        0.03209456
      29         -0.467397        2.000000        0.40229201        0.10479899        0.00086799        0.18015581        0.06195445        0.00885536        0.00172608        0.01487179        0.03105295
      30         -0.465234        2.000000        0.40185862        0.15870535        0.00130552        0.12468621        0.03286035        0.01424790        0.00168375        0.00828459        0.05850056
      31         -0.464981        2.000000        0.39956970        0.12799872        0.00146150        0.17887559        0.03614069        0.00947179        0.00122774        0.01480215        0.03514835
      32         -0.461873        2.000000        0.40650932        0.10472640        0.00199756        0.16978716        0.05952463        0.00784881        0.00122120        0.01595553        0.04106464
      33         -0.423621        2.000000        0.00788460        0.00353800        0.00301634        0.00815122        0.00024506        0.00037311        0.00073346        0.00066957        0.00009011
      34         -0.421650        2.000000        0.00761719        0.00383361        0.00307691        0.00836761        0.00018271        0.00045930        0.00076568        0.00071664        0.00009998
      35         -0.419205        2.000000        0.01477254        0.01806657        0.00614658        0.00228885        0.00027130        0.00174444        0.00145568        0.00043368        0.00069286
      36         -0.412485        2.000000        0.01015285        0.00623445        0.00438103        0.00496252        0.00080427        0.00118762        0.00096123        0.00110922        0.00050135
      37         -0.410207        2.000000        0.24931031        0.09462884        0.04454293        0.21666692        0.01122137        0.01353429        0.01148168        0.02285064        0.00362666
      38         -0.409751        2.000000        0.12567572        0.04673188        0.02442804        0.11877407        0.00442762        0.00534503        0.00705724        0.01268433        0.00192759
      39         -0.409706        2.000000        0.03332870        0.01146096        0.00769749        0.02847528        0.00131701        0.00205760        0.00209682        0.00303263        0.00113512
      40         -0.408230        2.000000        0.13304351        0.13646771        0.02451622        0.03823784        0.00193118        0.01452757        0.00746220        0.00464169        0.00494695
      41         -0.407456        2.000000        0.21278172        0.18350307        0.04019684        0.08717052        0.00397535        0.01975052        0.01126162        0.01107306        0.00742424
      42         -0.406674        2.000000        0.05048635        0.02260716        0.01114556        0.03894300        0.00183272        0.00327529        0.00296825        0.00498608        0.00163759
      43         -0.405068        2.000000        0.05765764        0.03147432        0.01699052        0.02160854        0.00383858        0.00622677        0.00391530        0.00350298        0.00542617
      44         -0.404742        2.000000        0.04805677        0.02049779        0.01072080        0.03309546        0.00272308        0.00284236        0.00295900        0.00527476        0.00146865
      45         -0.401447        2.000000        0.25040077        0.12178741        0.05631390        0.11302465        0.02291103        0.01677311        0.01545616        0.01725401        0.01802025
      46         -0.399191        2.000000        0.28677056        0.15020602        0.07448576        0.09830479        0.01504843        0.02597580        0.01693149        0.01600071        0.03397668
      47         -0.398129        2.000000        0.28425268        0.09021148        0.06371682        0.17405682        0.03576914        0.01360331        0.02027739        0.02540279        0.01103711
      48         -0.397803        2.000000        0.29390732        0.12876767        0.07591209        0.12594785        0.02513881        0.01955108        0.01883449        0.02171641        0.02606361
      49         -0.395861        2.000000        0.29709743        0.15372887        0.05962878        0.12483102        0.02267962        0.01896665        0.02321874        0.01690795        0.03177891
      50         -0.394162        2.000000        0.29597876        0.13590104        0.06639143        0.13369750        0.02714169        0.01667138        0.02397192        0.01790317        0.02807351
      51         -0.388164        2.000000        0.03329194        0.00753259        0.08339670        0.00923824        0.00197024        0.00195376        0.00686989        0.00300710        0.00167760
      52         -0.383511        2.000000        0.03045695        0.00724577        0.06297694        0.00522590        0.00115966        0.00449127        0.00542411        0.00225969        0.00172044
      53         -0.379461        2.000000        0.04237737        0.00568608        0.10939470        0.00653929        0.00174420        0.00338242        0.00667988        0.00464840        0.00148508
      54         -0.377756        2.000000        0.04333382        0.00595884        0.09210591        0.00984267        0.00297298        0.00308659        0.00741939        0.00556709        0.00186887
      55         -0.377149        2.000000        0.10986777        0.01886349        0.26295039        0.01217049        0.00399973        0.00851956        0.01156793        0.00877574        0.00438305
      56         -0.375300        2.000000        0.08446254        0.01985901        0.15097619        0.00935433        0.00262986        0.01046318        0.01109723        0.00571854        0.00563431
      57         -0.369522        2.000000        0.10121167        0.01403147        0.20206181        0.01725647        0.00444443        0.00737799        0.01333678        0.01048381        0.00384488
      58         -0.366459        2.000000        0.16410470        0.03025468        0.25690394        0.03846638        0.01020599        0.00865143        0.01854556        0.01466497        0.00635680
      59         -0.364045        2.000000        0.15519291        0.02997105        0.23287474        0.03074847        0.00711314        0.01276065        0.01632054        0.01205319        0.00775570
      60         -0.363596        2.000000        0.12200837        0.03826895        0.18111241        0.00717602        0.00219263        0.01293645        0.01225453        0.00393770        0.00930916
      61         -0.362374        2.000000        0.14761058        0.02249150        0.21026777        0.03962859        0.00967032        0.00827814        0.01652003        0.01317929        0.00545163
      62         -0.360553        2.000000        0.11659164        0.02098653        0.17273643        0.02717125        0.00690064        0.00714928        0.01273474        0.00838906        0.00524095
      63         -0.358621        2.000000        0.09777838        0.02279532        0.13192679        0.02084033        0.00420649        0.00778543        0.01182339        0.00588483        0.00529604
      64         -0.354530        2.000000        0.07461993        0.00753441        0.21932141        0.00377162        0.00047216        0.00236328        0.00691910        0.00070086        0.00142911
      65         -0.279113        2.000000        0.00536292        0.10066113        0.36186224        0.17500897        0.00147421        0.00330048        0.01580857        0.00362047        0.00354532
      66         -0.276507        2.000000        0.00508177        0.09937116        0.38022827        0.19938017        0.00332856        0.00281529        0.01658294        0.00398371        0.00179135
      67         -0.275725        2.000000        0.00682275        0.22515718        0.36534774        0.05246312        0.00433422        0.00398486        0.01808294        0.00173209        0.00217911
      68         -0.270744        2.000000        0.01310015        0.10046653        0.24068009        0.08158435        0.00821244        0.00596355        0.01002350        0.00134045        0.01193097
      69         -0.270305        2.000000        0.01152402        0.05073781        0.21341036        0.09661041        0.00858663        0.00442895        0.00798933        0.00381967        0.00838439
      70         -0.267322        2.000000        0.00663106        0.05973918        0.20311489        0.07824607        0.00787996        0.00211997        0.00931647        0.00279136        0.00427672
      71         -0.265975        2.000000        0.01317739        0.06844532        0.23246648        0.09997985        0.01110222        0.00310382        0.00884780        0.00336538        0.00979819
      72         -0.264791        2.000000        0.01412122        0.10285767        0.24455219        0.10649544        0.00638849        0.00647824        0.01015733        0.00226513        0.01593046
      73         -0.262658        2.000000        0.01428776        0.08016951        0.31100102        0.11020452        0.00980669        0.00485520        0.01572742        0.00314461        0.01269411
      74         -0.262096        2.000000        0.01051127        0.09555417        0.22909572        0.08822163        0.01031236        0.00289542        0.01022196        0.00310035        0.00809685
      75         -0.259775        2.000000        0.01204678        0.06576150        0.22860208        0.11160709        0.00969888        0.00346812        0.00948808        0.00206198        0.01116115
      76         -0.259352        2.000000        0.00974850        0.07512847        0.23255289        0.11967036        0.01044327        0.00647648        0.01790316        0.00308974        0.00596239
      77         -0.256851        2.000000        0.01272698        0.10769630        0.28430170        0.16369437        0.01190642        0.00806752        0.05195056        0.00381793        0.00602871
      78         -0.255797        2.000000        0.00979111        0.13993545        0.16259020        0.05753134        0.00689443        0.00351003        0.02655541        0.00469912        0.00838694
      79         -0.254461        2.000000        0.00787185        0.12150138        0.21465377        0.18225525        0.00741560        0.00760649        0.04475370        0.00715141        0.00667267
      80         -0.253366        2.000000        0.00626675        0.07159426        0.13761027        0.02764955        0.00397942        0.00346038        0.02439671        0.00367391        0.00445965
      81         -0.253035        2.000000        0.00374936        0.05706050        0.16417138        0.05792807        0.00340603        0.00424459        0.02876990        0.00344872        0.00286365
      82         -0.252655        2.000000        0.01458360        0.07421072        0.22400449        0.09630101        0.01034112        0.00320065        0.05069400        0.00411216        0.00698846
      83         -0.251188        2.000000        0.00592826        0.06845408        0.22317195        0.08487260        0.00338247        0.00863759        0.03868038        0.00525131        0.00787305
      84         -0.250771        2.000000        0.01448504        0.13100445        0.21962151        0.06536916        0.00783467        0.00604694        0.04100950        0.00681878        0.00888041
      85         -0.250029        2.000000        0.01248015        0.09914384        0.22404548        0.08013013        0.00855033        0.00707932        0.04237058        0.00585644        0.00532738
      86         -0.249531        2.000000        0.00765974        0.05176186        0.20000546        0.07847389        0.00707047        0.00501075        0.04554704        0.00536407        0.00361953
      87         -0.248625        2.000000        0.01189992        0.06482387        0.19392406        0.05941335        0.00970124        0.00390145        0.03952489        0.00626892        0.00564747
      88         -0.247553        2.000000        0.01007872        0.12674219        0.15304156        0.12518604        0.00945600        0.00457494        0.02993891        0.00679863        0.00753517
      89         -0.246792        2.000000        0.01538043        0.04992643        0.17577966        0.07203254        0.01089438        0.00314746        0.03826285        0.00322209        0.00531138
      90         -0.246682        2.000000        0.00844373        0.06956397        0.21331015        0.09384680        0.00660224        0.00803330        0.05016709        0.00321866        0.00443362
      91         -0.245577        2.000000        0.01085959        0.06018135        0.19582270        0.06751002        0.00699249        0.00480689        0.03784496        0.00546934        0.00774011
      92         -0.244488        2.000000        0.01510450        0.08945823        0.15658152        0.11072979        0.01180272        0.00586939        0.03960354        0.00551326        0.00610537
      93         -0.244309        2.000000        0.01066410        0.11675020        0.21985179        0.08239390        0.00830290        0.00856426        0.05225896        0.00530205        0.01053970
      94         -0.243461        2.000000        0.03257616        0.20808862        0.16015084        0.08312238        0.00945899        0.00439994        0.02605422        0.00282414        0.02725533
      95         -0.242595        2.000000        0.00962661        0.05447762        0.18323972        0.07528918        0.00860820        0.00487706        0.04128872        0.00415529        0.00675190
      96         -0.242023        2.000000        0.01210159        0.05357258        0.09671446        0.09097697        0.01066450        0.00251285        0.02088773        0.00317063        0.00590538
      97         -0.240492        2.000000        0.01892689        0.11276530        0.17516563        0.08018084        0.00916186        0.00282446        0.03809729        0.00587037        0.01181599
      98         -0.240405        2.000000        0.01784296        0.13386679        0.18465310        0.11038592        0.01253382        0.00725626        0.03511147        0.00524447        0.01242186
      99         -0.239514        2.000000        0.00922913        0.08814496        0.19870920        0.06741092        0.00622776        0.00579459        0.05544744        0.00449834        0.00804866
     100         -0.238624        2.000000        0.00925757        0.04631105        0.09308077        0.07712238        0.00674274        0.00282744        0.02055952        0.00375783        0.00655290
     101         -0.237685        2.000000        0.02866615        0.11996360        0.16206446        0.14305156        0.01740712        0.00451218        0.01972367        0.00147325        0.02067353
     102         -0.236594        2.000000        0.02019300        0.09308097        0.20776463        0.09159816        0.01244621        0.00543690        0.05339231        0.00338108        0.01431258
     103         -0.235996        2.000000        0.01459040        0.06539788        0.15585127        0.08581680        0.01050441        0.00328355        0.04444069        0.00336311        0.01164441
     104         -0.234629        2.000000        0.02800783        0.11201255        0.16150213        0.15580520        0.02168172        0.00469223        0.03106694        0.00278032        0.01682827
     105         -0.234292        2.000000        0.02585338        0.12186503        0.16181657        0.11505629        0.01436035        0.00369632        0.03120398        0.00468196        0.01884206
     106         -0.233623        2.000000        0.01795794        0.10995497        0.16383076        0.08757612        0.00957394        0.00510772        0.02551170        0.00391391        0.01671006
     107         -0.233143        2.000000        0.00741408        0.04752952        0.10803003        0.04227751        0.00443231        0.00342566        0.03259070        0.00280462        0.00552138
     108         -0.231971        2.000000        0.01343283        0.10893209        0.12929580        0.10787684        0.01492927        0.00557637        0.02326544        0.00430210        0.01201732
     109         -0.231503        2.000000        0.00656107        0.04013132        0.13981077        0.09274585        0.00728047        0.00454573        0.03178638        0.00267955        0.00790994
     110         -0.230543        2.000000        0.00614984        0.10148930        0.11107458        0.07370631        0.00547039        0.00716616        0.02628057        0.00395910        0.01006627
     111         -0.229634        2.000000        0.01732731        0.09085603        0.18833311        0.10135408        0.01356136        0.00781128        0.04590644        0.00302077        0.01254266
     112         -0.228950        2.000000        0.00733424        0.09235460        0.10879395        0.06730386        0.00975037        0.00560326        0.01754010        0.00436869        0.00916686
     113         -0.228440        2.000000        0.00984179        0.08387284        0.15127353        0.09583300        0.00967065        0.00647623        0.02999047        0.00587023        0.01281859
     114         -0.227008        2.000000        0.00845739        0.06827684        0.11687789        0.08987013        0.00898727        0.00622619        0.02431533        0.00385865        0.00971483
     115         -0.226120        2.000000        0.00985495        0.06105851        0.14638470        0.08707014        0.00987599        0.00535953        0.03285604        0.00590913        0.00846534
     116         -0.225684        2.000000        0.00562998        0.06314687        0.08565699        0.04831175        0.00514227        0.00404821        0.02092128        0.00336300        0.00702610
     117         -0.224658        2.000000        0.00422310        0.06849414        0.08528183        0.09385095        0.00669110        0.00542142        0.02352144        0.00378177        0.00877088
     118         -0.224250        2.000000        0.00642639        0.13474891        0.09221714        0.10715351        0.01325888        0.00661254        0.01852753        0.00598502        0.00987640
     119         -0.222815        2.000000        0.00718371        0.05599026        0.11099020        0.04380032        0.00906753        0.00475211        0.02760726        0.00386484        0.00552529
     120         -0.221724        2.000000        0.00831629        0.18369344        0.12667909        0.11434680        0.01717319        0.00803210        0.02106561        0.01022553        0.01311338
     121         -0.221276        2.000000        0.01767930        0.13056212        0.17045161        0.16776528        0.01730349        0.00864588        0.02902884        0.00838660        0.01915355
     122         -0.219867        2.000000        0.00720353        0.15287583        0.11496200        0.10925860        0.01845939        0.00829077        0.01915460        0.00828391        0.00974766
     123         -0.219450        2.000000        0.00735647        0.10867165        0.08433737        0.08591784        0.01056441        0.00479158        0.01006136        0.00474291        0.01275119
     124         -0.218444        2.000000        0.00450454        0.04606758        0.05860079        0.06575903        0.00508485        0.00496299        0.01311201        0.00229683        0.00681964
     125         -0.217619        2.000000        0.00412539        0.02235090        0.06688603        0.04530792        0.00564023        0.00338699        0.01542709        0.00224268        0.00337695
     126         -0.215932        2.000000        0.00659841        0.14021929        0.12012574        0.03205095        0.01524285        0.00566972        0.02595495        0.00678264        0.00472500
     127         -0.212770        2.000000        0.00417818        0.01760807        0.06830309        0.04329482        0.00558479        0.00333967        0.01393275        0.00217465        0.00340034
     128         -0.211696        2.000000        0.00329245        0.02286958        0.06528223        0.01725659        0.00287439        0.00182573        0.01417843        0.00135654        0.00466529
     129         -0.209850        2.000000        0.00178124        0.01548833        0.05204595        0.02826713        0.00336869        0.00219503        0.01136824        0.00212178        0.00241427
     130         -0.208448        2.000000        0.00481648        0.01937604        0.09063223        0.03923596        0.00621783        0.00300075        0.02238642        0.00271485        0.00333444
     131         -0.205879        2.000000        0.00237306        0.02445970        0.05530471        0.01593060        0.00193204        0.00271164        0.01346336        0.00185754        0.00329131
     132         -0.204799        2.000000        0.00244524        0.01287926        0.05220231        0.01080122        0.00179603        0.00197394        0.01491202        0.00110437        0.00218304
     133         -0.203198        2.000000        0.00149841        0.01179245        0.04703212        0.01129432        0.00184369        0.00151617        0.01289828        0.00175783        0.00156454
     134         -0.200336        2.000000        0.00129733        0.00970998        0.02899719        0.00605274        0.00172936        0.00112291        0.00634806        0.00123441        0.00076665
     135         -0.199208        2.000000        0.00106568        0.01054075        0.03312609        0.01001547        0.00102686        0.00140859        0.00758778        0.00074998        0.00127357
     136         -0.197033        2.000000        0.00039949        0.00417879        0.01802277        0.00567084        0.00061123        0.00055802        0.00354753        0.00056933        0.00045572
     137         -0.196083        2.000000        0.00077788        0.02332745        0.03234031        0.02865369        0.00126088        0.00162977        0.00715994        0.00137048        0.00163284
     138         -0.195194        2.000000        0.00042226        0.01410013        0.01011389        0.00612309        0.00041843        0.00084120        0.00129271        0.00050777        0.00108233
     139         -0.189300        2.000000        0.00182143        0.47597686        0.02245324        0.38090303        0.00901935        0.01542538        0.00242215        0.01472559        0.00799306
     140         -0.187280        2.000000        0.00154107        0.17608244        0.02588808        0.66064561        0.00991179        0.00756397        0.00445705        0.02386523        0.00647946
     141         -0.185028        2.000000        0.00206512        0.63728425        0.02034785        0.22648152        0.00514388        0.02152364        0.00201486        0.01071964        0.01036310
     142         -0.171038        2.000000        0.00154809        0.09081660        0.01094893        0.74322030        0.07033282        0.00344441        0.00127458        0.02392115        0.01031418
     143         -0.167532        2.000000        0.00140312        0.51486255        0.01427448        0.31321767        0.02886656        0.01440700        0.00164842        0.01037354        0.05173993
     144         -0.164967        2.000000        0.00082816        0.35357392        0.01312349        0.34497806        0.03149149        0.01131220        0.00195021        0.01178476        0.03582463