# Projected DOS for atomic kind Ge at iteration step i = 0, E(Fermi) =    -0.094233 a.u.
#     MO Eigenvalue [a.u.]      Occupation                 s                py                pz                px               d-2               d-1                d0               d+1               d+2
       1         -0.558147        2.000000        0.75088431        0.00535713        0.01986403        0.00410379        0.00062484        0.00048101        0.00740908        0.00057946        0.00090187
       2         -0.543805        2.000000        0.01202299        0.00011093        0.00326768        0.00017964        0.00002990        0.00001169        0.00066367        0.00004691        0.00002824
       3         -0.537612        2.000000        0.65116173        0.03569981        0.01226043        0.07602436        0.00715911        0.00205685        0.00273462        0.00432814        0.00363828
       4         -0.534378        2.000000        0.65620388        0.08506942        0.01392394        0.02909291        0.00290482        0.00420370        0.00255693        0.00171559        0.00872776
       5         -0.530427        2.000000        0.64869299        0.03217099        0.00847710        0.08283619        0.00824372        0.00171921        0.00322425        0.00494347        0.00353493
       6         -0.529104        2.000000        0.62512069        0.04351035        0.00926995        0.06438981        0.00673153        0.00235720        0.00246428        0.00344540        0.00445392
       7         -0.526948        2.000000        0.62349771        0.10025724        0.00811444        0.00904624        0.00158816        0.00525183        0.00315697        0.00086291        0.01055106
       8         -0.524713        2.000000        0.06484138        0.00825530        0.00237802        0.00273327        0.00030231        0.00053582        0.00049513        0.00022961        0.00106099
       9         -0.521606        2.000000        0.58892177        0.03297768        0.00673704        0.07742390        0.00747857        0.00176405        0.00252497        0.00429236        0.00331839
      10         -0.518714        2.000000        0.02498849        0.00204516        0.00205245        0.00223394        0.00030829        0.00016542        0.00038926        0.00013554        0.00027870
      11         -0.517802        2.000000        0.03514405        0.00213832        0.00216009        0.00406663        0.00046424        0.00014243        0.00044150        0.00027237        0.00025359
      12         -0.517591        2.000000        0.03070429        0.00157850        0.00143329        0.00360159        0.00045418        0.00014072        0.00031509        0.00031967        0.00023396
      13         -0.513456        2.000000        0.00841327        0.00045931        0.00149752        0.00075140        0.00011105        0.00008178        0.00021227        0.00006627        0.00010577
      14         -0.510529        2.000000        0.00439194        0.00058891        0.00089671        0.00022683        0.00003590        0.00005480        0.00015480        0.00003395        0.00009408
      15         -0.491247        2.000000        0.54680733        0.13605133        0.00226817        0.07884683        0.01251587        0.00854013        0.00084213        0.00578615        0.01634952
      16         -0.487331        2.000000        0.54179145        0.05801733        0.00248149        0.15554840        0.01937049        0.00528715        0.00069290        0.00929532        0.01191084
      17         -0.485001        2.000000        0.54492082        0.06530809        0.00182779        0.13926179        0.01902195        0.00495199        0.00031859        0.01144596        0.01410739
      18         -0.483305        2.000000        0.54425835        0.09214901        0.00224180        0.11008325        0.01839630        0.00674425        0.00077946        0.00791183        0.01370505
      19         -0.481472        2.000000        0.51259026        0.12225354        0.00114236        0.08015170        0.01303974        0.00809313        0.00054997        0.00473053        0.01657126
      20         -0.481196        2.000000        0.53858388        0.12556023        0.00136872        0.06648838        0.01144762        0.00876098        0.00043391        0.00465268        0.02315094
      21         -0.478928        2.000000        0.54491506        0.09735631        0.00264307        0.09260289        0.01928170        0.00635467        0.00077678        0.00677032        0.01854662
      22         -0.478121        2.000000        0.06523505        0.01749375        0.00075821        0.00737024        0.00111598        0.00106455        0.00011516        0.00070366        0.00281248
      23         -0.476163        2.000000        0.36796011        0.09140458        0.00114064        0.05281894        0.00820151        0.00516821        0.00033487        0.00309520        0.01572293
      24         -0.475037        2.000000        0.16807320        0.03569517        0.00089497        0.03008760        0.00453554        0.00220136        0.00020077        0.00183768        0.00590942
      25         -0.472108        2.000000        0.01996933        0.00360908        0.00038520        0.00431318        0.00062287        0.00027404        0.00004682        0.00024890        0.00065538
      26         -0.471076        2.000000        0.00971730        0.00148051        0.00033536        0.00182066        0.00037130        0.00012442        0.00003923        0.00016020        0.00032084
      27         -0.469284        2.000000        0.04235052        0.00581261        0.00042638        0.00980604        0.00178613        0.00036919        0.00008039        0.00055532        0.00107100
      28         -0.468721        2.000000        0.46474590        0.05082776        0.00232749        0.11215283        0.02075462        0.00336240        0.00057916        0.00794041        0.01042064
      29         -0.468599        2.000000        0.00350798        0.00086968        0.00036429        0.00095096        0.00012192        0.00003076        0.00004134        0.00004309        0.00012657
      30         -0.466927        2.000000        0.02339356        0.00264353        0.00047733        0.00623014        0.00091846        0.00022658        0.00005805        0.00041603        0.00053534
      31         -0.466676        2.000000        0.02693468        0.00305819        0.00035647        0.00645103        0.00109907        0.00024566        0.00005224        0.00049211        0.00069185
      32         -0.463736        2.000000        0.00214121        0.00056587        0.00048858        0.00068483        0.00007526        0.00004784        0.00004050        0.00006109        0.00005494
      33         -0.423540        2.000000        0.37573928        0.07679369        0.03750080        0.20816410        0.01100425        0.00453307        0.00807542        0.01801228        0.00373900
      34         -0.420135        2.000000        0.37235938        0.08274459        0.04068459        0.19407625        0.00934328        0.00610424        0.00848466        0.01649597        0.00493247
      35         -0.418019        2.000000        0.32797730        0.21198640        0.05023009        0.02301876        0.00195200        0.01795049        0.00587130        0.00349836        0.01100737
      36         -0.414523        2.000000        0.35835560        0.09412709        0.06710390        0.09888251        0.01427686        0.01183505        0.00757094        0.01001904        0.00842972
      37         -0.412183        2.000000        0.04897284        0.01701824        0.00712652        0.01326793        0.00120899        0.00177374        0.00113345        0.00131215        0.00195226
      38         -0.410239        2.000000        0.38674939        0.11642945        0.05308249        0.10483060        0.01277187        0.01220979        0.00885050        0.01037420        0.01427554
      39         -0.409310        2.000000        0.18315902        0.05334538        0.03065742        0.04638617        0.00581564        0.00575906        0.00476074        0.00609960        0.00743058
      40         -0.408502        2.000000        0.11689976        0.02920459        0.02119817        0.03282246        0.00395335        0.00342754        0.00211576        0.00410788        0.00361471
      41         -0.407809        2.000000        0.18878539        0.05381930        0.03029537        0.05050934        0.00609362        0.00616212        0.00485611        0.00635939        0.00720948
      42         -0.406316        2.000000        0.32633736        0.11590541        0.04109951        0.08688299        0.01013064        0.01043376        0.00997848        0.00788251        0.01440209
      43         -0.403812        2.000000        0.37154108        0.09615339        0.04570692        0.12214847        0.01600995        0.00781263        0.01150811        0.01061504        0.01089396
      44         -0.402843        2.000000        0.16942924        0.05264452        0.01848403        0.04662084        0.00469992        0.00473282        0.00530835        0.00407036        0.00859762
      45         -0.401645        2.000000        0.26830797        0.06639077        0.03934173        0.08946199        0.01067814        0.00643233        0.00795918        0.00881802        0.00898964
      46         -0.399724        2.000000        0.01773164        0.00541304        0.00337398        0.00555058        0.00063142        0.00069411        0.00043674        0.00039393        0.00058317
      47         -0.398883        2.000000        0.01060665        0.00351898        0.00151484        0.00376293        0.00035353        0.00028891        0.00026110        0.00028938        0.00043333
      48         -0.397287        2.000000        0.03088878        0.00989426        0.00707825        0.00831414        0.00095700        0.00079184        0.00091644        0.00077522        0.00128558
      49         -0.396035        2.000000        0.01042753        0.00280011        0.00216442        0.00396607        0.00037217        0.00032259        0.00037218        0.00026485        0.00038730
      50         -0.394200        2.000000        0.01314096        0.00329563        0.00653374        0.00352321        0.00044836        0.00034218        0.00045214        0.00040786        0.00037601
      51         -0.386922        2.000000        0.18673956        0.01967839        0.20062045        0.02899191        0.00410197        0.00474237        0.00852738        0.00656528        0.00296828
      52         -0.380969        2.000000        0.19588896        0.03162841        0.21225762        0.02195427        0.00373361        0.00605410        0.01070620        0.00503488        0.00461610
      53         -0.379645        2.000000        0.15857825        0.02330894        0.19636694        0.01470270        0.00192744        0.00530522        0.00981904        0.00281438        0.00425691
      54         -0.375805        2.000000        0.17889143        0.02159725        0.17807450        0.02927837        0.00482784        0.00430403        0.01107770        0.00615845        0.00353688
      55         -0.375093        2.000000        0.19515523        0.01704422        0.16623243        0.04202845        0.00585125        0.00379341        0.01165807        0.00730416        0.00261735
      56         -0.372389        2.000000        0.17258608        0.03546004        0.16073081        0.01381145        0.00147727        0.00710958        0.01131520        0.00286556        0.00548381
      57         -0.370876        2.000000        0.13787971        0.01644697        0.14245691        0.02434989        0.00417453        0.00291909        0.00978677        0.00439931        0.00238249
      58         -0.366293        2.000000        0.08643054        0.01307682        0.09572335        0.01141927        0.00145252        0.00204653        0.00463757        0.00138223        0.00185781
      59         -0.363961        2.000000        0.11410033        0.01726649        0.08486697        0.01932390        0.00309276        0.00289297        0.00702536        0.00306034        0.00290704
      60         -0.361792        2.000000        0.11623499        0.01686353        0.09234241        0.01821671        0.00271673        0.00340263        0.00649376        0.00356519        0.00255942
      61         -0.360505        2.000000        0.06483253        0.00882116        0.04682308        0.01296599        0.00178382        0.00165253        0.00370348        0.00175817        0.00135829
      62         -0.359305        2.000000        0.09182823        0.01104451        0.07722838        0.01726575        0.00285011        0.00190023        0.00581353        0.00294661        0.00180810
      63         -0.357558        2.000000        0.05812931        0.01463906        0.04041908        0.00524247        0.00074307        0.00183847        0.00367354        0.00100588        0.00209234
      64         -0.353978        2.000000        0.08479560        0.00462277        0.14448469        0.00488148        0.00069235        0.00096332        0.00518521        0.00130854        0.00048362
      65         -0.280839        2.000000        0.00082116        0.00203711        0.00499271        0.00237616        0.00009267        0.00013296        0.00042054        0.00028795        0.00011428
      66         -0.277881        2.000000        0.00247505        0.00945408        0.02160545        0.01242869        0.00024029        0.00044347        0.00127706        0.00036355        0.00054731
      67         -0.274099        2.000000        0.00261024        0.00987940        0.03259591        0.01267038        0.00050382        0.00080600        0.00220710        0.00037879        0.00070372
      68         -0.271664        2.000000        0.00709832        0.02424751        0.09264694        0.05227991        0.00216455        0.00084242        0.00436228        0.00085099        0.00258083
      69         -0.269572        2.000000        0.00905889        0.12018484        0.17808282        0.05450130        0.00389942        0.00073825        0.00661282        0.00068689        0.00122144
      70         -0.268635        2.000000        0.00436251        0.02557032        0.06269725        0.03805329        0.00084294        0.00066377        0.00199093        0.00041475        0.00162175
      71         -0.266636        2.000000        0.00783848        0.05813540        0.17555631        0.10244453        0.00086257        0.00080261        0.00580365        0.00098264        0.00233673
      72         -0.264684        2.000000        0.00589696        0.05027084        0.15910102        0.08753232        0.00125777        0.00109365        0.00610583        0.00080186        0.00202100
      73         -0.263196        2.000000        0.00482507        0.05585777        0.16284651        0.05496081        0.00275098        0.00077734        0.00714161        0.00108107        0.00083468
      74         -0.262509        2.000000        0.00348236        0.06939012        0.15584760        0.04070933        0.00105783        0.00091640        0.00583781        0.00054217        0.00052981
      75         -0.260924        2.000000        0.00348770        0.03094390        0.11776991        0.05550510        0.00099985        0.00067792        0.00421260        0.00120111        0.00124785
      76         -0.260194        2.000000        0.00468685        0.03795431        0.07336273        0.02452302        0.00087192        0.00059006        0.00268030        0.00026091        0.00199807
      77         -0.258104        2.000000        0.00301591        0.02811701        0.07846229        0.02566293        0.00093220        0.00029914        0.00471446        0.00066232        0.00132328
      78         -0.255607        2.000000        0.00437372        0.03616840        0.14347104        0.03920097        0.00166706        0.00120026        0.00975018        0.00115336        0.00249006
      79         -0.254193        2.000000        0.00789665        0.05169070        0.12012310        0.02949048        0.00183587        0.00064902        0.00612282        0.00082114        0.00338462
      80         -0.253547        2.000000        0.00763949        0.05191611        0.15514753        0.05071435        0.00264140        0.00157149        0.01337237        0.00157783        0.00203895
      81         -0.252886        2.000000        0.00532292        0.03814857        0.10233501        0.02938884        0.00234719        0.00128144        0.00607172        0.00071952        0.00231747
      82         -0.252373        2.000000        0.00735006        0.04687302        0.12749225        0.04855713        0.00221268        0.00152919        0.00986212        0.00101923        0.00386897
      83         -0.251554        2.000000        0.00402401        0.02024810        0.05040900        0.01548155        0.00100819        0.00034927        0.00268950        0.00035951        0.00149983
      84         -0.251029        2.000000        0.01011091        0.08937819        0.21319775        0.07070849        0.00481095        0.00153909        0.00746856        0.00116711        0.00576243
      85         -0.249540        2.000000        0.01108028        0.05325522        0.16813681        0.07090369        0.00499666        0.00238154        0.01442958        0.00141231        0.00204810
      86         -0.249137        2.000000        0.01089169        0.05764977        0.17336761        0.05211251        0.00408104        0.00145175        0.01547254        0.00204034        0.00301938
      87         -0.248820        2.000000        0.01253245        0.12322931        0.22381784        0.04753090        0.00484139        0.00107650        0.01302802        0.00180193        0.00531316
      88         -0.247773        2.000000        0.00322847        0.02954101        0.10207789        0.02280026        0.00193615        0.00140427        0.00642687        0.00086594        0.00104701
      89         -0.246422        2.000000        0.00743870        0.02862446        0.12859748        0.04755104        0.00226276        0.00121894        0.01576284        0.00170764        0.00218195
      90         -0.246304        2.000000        0.00561123        0.04769162        0.17353396        0.03989836        0.00283017        0.00109688        0.00968371        0.00093638        0.00268000
      91         -0.245417        2.000000        0.01348966        0.06590090        0.24927709        0.09455926        0.00826872        0.00197975        0.01186099        0.00215921        0.00407015
      92         -0.244560        2.000000        0.00891011        0.03384958        0.13583276        0.05742338        0.00320669        0.00163966        0.01043255        0.00165970        0.00256757
      93         -0.244401        2.000000        0.01041164        0.02861498        0.07655537        0.03008743        0.00177657        0.00145504        0.01041859        0.00110034        0.00222592
      94         -0.243054        2.000000        0.00361896        0.02417807        0.08300253        0.02233414        0.00156653        0.00150648        0.00748112        0.00179710        0.00136142
      95         -0.242417        2.000000        0.00957902        0.05098729        0.15035859        0.04225159        0.00177855        0.00113985        0.01419241        0.00118960        0.00493176
      96         -0.241973        2.000000        0.00549772        0.02167986        0.10873827        0.03533447        0.00161862        0.00133995        0.01218811        0.00098557        0.00232231
      97         -0.241488        2.000000        0.00823345        0.08755279        0.20269083        0.05827648        0.00294305        0.00319352        0.01668162        0.00269018        0.00397110
      98         -0.240726        2.000000        0.00763622        0.03766127        0.19774756        0.04836912        0.00399688        0.00230324        0.01629007        0.00196251        0.00224957
      99         -0.240505        2.000000        0.00481316        0.03363001        0.11318290        0.03922936        0.00289803        0.00085654        0.00717381        0.00148688        0.00109878
     100         -0.238813        2.000000        0.00627004        0.04573671        0.21044120        0.06659733        0.00220595        0.00388811        0.02134769        0.00276978        0.00282992
     101         -0.238126        2.000000        0.01578647        0.05126871        0.13628163        0.10867599        0.00589206        0.00174916        0.01235256        0.00226084        0.00458180
     102         -0.237029        2.000000        0.01274179        0.08212999        0.16145502        0.05973076        0.00296516        0.00176042        0.01834978        0.00347247        0.00451407
     103         -0.236126        2.000000        0.00510575        0.04407177        0.12876765        0.08606986        0.00166586        0.00275802        0.01600252        0.00185602        0.00311694
     104         -0.235866        2.000000        0.00914223        0.06877724        0.17887047        0.09788306        0.00377943        0.00346068        0.02113493        0.00269728        0.00342854
     105         -0.234475        2.000000        0.01166768        0.03409666        0.13569352        0.07230258        0.00429107        0.00269100        0.01078369        0.00140832        0.00254552
     106         -0.233186        2.000000        0.01123522        0.06874461        0.15207348        0.10124616        0.00412573        0.00267111        0.02220885        0.00270817        0.00308075
     107         -0.232024        2.000000        0.00826712        0.05168146        0.11466997        0.05035892        0.00442104        0.00149784        0.01083777        0.00137417        0.00326221
     108         -0.231431        2.000000        0.00513487        0.03886065        0.16463239        0.06387314        0.00136673        0.00252227        0.01856791        0.00355185        0.00295558
     109         -0.230605        2.000000        0.00922302        0.07114504        0.12815034        0.04651613        0.00522293        0.00155518        0.01770202        0.00234289        0.00220133
     110         -0.230328        2.000000        0.00551018        0.03953281        0.16069801        0.04682258        0.00341696        0.00332063        0.01865196        0.00179126        0.00150444
     111         -0.229493        2.000000        0.01744405        0.09864735        0.21790215        0.06447230        0.00474755        0.00336448        0.02675378        0.00328146        0.00844388
     112         -0.228596        2.000000        0.01978398        0.06038921        0.20538362        0.10424725        0.00959761        0.00299758        0.01949203        0.00389397        0.00389768
     113         -0.227188        2.000000        0.02371443        0.15566120        0.15468579        0.12754810        0.00644193        0.00206425        0.01367435        0.00427408        0.00896207
     114         -0.226387        2.000000        0.00802429        0.05701262        0.14309691        0.05920235        0.00371621        0.00229533        0.01927386        0.00250827        0.00280759
     115         -0.225750        2.000000        0.03987637        0.17851247        0.18188237        0.10929122        0.00836363        0.00297817        0.02000157        0.00127833        0.01473750
     116         -0.224636        2.000000        0.02352778        0.09686922        0.21311177        0.11058532        0.00742109        0.00242401        0.02160567        0.00374089        0.00848112
     117         -0.223929        2.000000        0.01233981        0.08516022        0.14986671        0.06292264        0.00424148        0.00242024        0.01600521        0.00341963        0.00483468
     118         -0.222594        2.000000        0.02823304        0.11063737        0.17069858        0.14675371        0.01263205        0.00274650        0.01851110        0.00219735        0.00729379
     119         -0.222043        2.000000        0.01544472        0.13360276        0.14301353        0.06218215        0.00778947        0.00319789        0.01214703        0.00310096        0.00713805
     120         -0.220867        2.000000        0.02402825        0.11591800        0.14508873        0.08349474        0.00558280        0.00229283        0.01297121        0.00208686        0.01101582
     121         -0.220483        2.000000        0.01653598        0.07166834        0.18431002        0.10571412        0.00593451        0.00307711        0.01827962        0.00312469        0.00581549
     122         -0.219858        2.000000        0.00822852        0.05121535        0.17125044        0.03300532        0.00326200        0.00256614        0.02056784        0.00351070        0.00379942
     123         -0.219361        2.000000        0.01813216        0.13067745        0.17679163        0.15141033        0.00876351        0.00384606        0.02005948        0.00413082        0.00659981
     124         -0.217615        2.000000        0.01744086        0.14338643        0.23844727        0.11687754        0.00928883        0.00543678        0.02220582        0.00545772        0.00571901
     125         -0.216245        2.000000        0.02737404        0.13693006        0.18604265        0.15237353        0.01031626        0.00207433        0.01542481        0.00382175        0.01143780
     126         -0.213666        2.000000        0.01135568        0.15031497        0.19101686        0.18426441        0.00699252        0.00741799        0.02973078        0.00367121        0.01019526
     127         -0.213111        2.000000        0.02007337        0.03795405        0.22506215        0.10600180        0.01125140        0.00297520        0.03643819        0.00372837        0.00397382
     128         -0.212035        2.000000        0.01967254        0.10792100        0.25721002        0.11531812        0.00765166        0.00361677        0.04411126        0.00550978        0.00679992
     129         -0.208772        2.000000        0.02946534        0.14151209        0.20880103        0.19147069        0.01372604        0.00483980        0.02241925        0.00651444        0.01380011
     130         -0.207910        2.000000        0.01240231        0.07686778        0.22470280        0.09609181        0.00602656        0.00261208        0.03982332        0.00481269        0.00713351
     131         -0.205287        2.000000        0.01733530        0.22217790        0.19987782        0.16981096        0.01265894        0.00785969        0.02160553        0.00719113        0.01227036
     132         -0.204323        2.000000        0.01858899        0.15134484        0.20179122        0.12747898        0.00500999        0.00506736        0.03032851        0.00755299        0.01535075
     133         -0.200859        2.000000        0.01933915        0.13786301        0.23515956        0.15565014        0.00998088        0.00624053        0.02948684        0.00869121        0.01352131
     134         -0.199155        2.000000        0.01730485        0.09983964        0.24399399        0.16560989        0.00838316        0.00574592        0.04412246        0.00702987        0.00925773
     135         -0.198398        2.000000        0.02569150        0.14984361        0.24077547        0.17697215        0.01084767        0.00739294        0.02490999        0.00744551        0.01940749
     136         -0.197395        2.000000        0.01716408        0.26884132        0.15780798        0.26020996        0.01216360        0.01095707        0.01688055        0.00936460        0.01763294
     137         -0.196294        2.000000        0.02360474        0.31692895        0.19300057        0.13141262        0.02293785        0.00755366        0.01827800        0.00952472        0.00723224
     138         -0.194560        2.000000        0.01961990        0.26318705        0.19440179        0.18941148        0.01869697        0.01462910        0.01808382        0.00959523        0.00998216
     139         -0.191931        2.000000        0.00099824        0.01253657        0.01225982        0.00757379        0.00055177        0.00058824        0.00149075        0.00042885        0.00096101
     140         -0.190836        2.000000        0.00120441        0.00731507        0.01342312        0.00714049        0.00072750        0.00036374        0.00191435        0.00025802        0.00062784
     141         -0.187275        2.000000        0.00023284        0.00216889        0.00319203        0.00167903        0.00015330        0.00010375        0.00044584        0.00006292        0.00013773
     142         -0.175525        2.000000        0.00004646        0.00052064        0.00126402        0.00046387        0.00002840        0.00002705        0.00014862        0.00002080        0.00004698
     143         -0.169935        2.000000        0.00003757        0.00029803        0.00075497        0.00115272        0.00003369        0.00002559        0.00004019        0.00004997        0.00002568
     144         -0.167633        2.000000        0.00008239        0.00140504        0.00095829        0.00270405        0.00006998        0.00006334        0.00009580        0.00006255        0.00006190