# Projected DOS for atomic kind H at iteration step i = 0, E(Fermi) =    -0.093794 a.u.
#     MO Eigenvalue [a.u.]      Occupation                 s                py                pz                px
       1         -0.557891        2.000000        0.11032130        0.00119747        0.07927462        0.00075964
       2         -0.545227        2.000000        0.14975502        0.00065199        0.11748458        0.00034966
       3         -0.536785        2.000000        0.10260325        0.00581452        0.07058365        0.00725977
       4         -0.534981        2.000000        0.10034151        0.00797129        0.07228022        0.00430190
       5         -0.530564        2.000000        0.10316101        0.00314279        0.07317926        0.00922643
       6         -0.528873        2.000000        0.11240157        0.00678432        0.06398743        0.00744463
       7         -0.527100        2.000000        0.10945910        0.01255776        0.06941886        0.00271916
       8         -0.526204        2.000000        0.10415510        0.00691701        0.08774994        0.00272740
       9         -0.522045        2.000000        0.11236867        0.00527617        0.06389864        0.01082807
      10         -0.520801        2.000000        0.10751071        0.00385978        0.08658250        0.00813703
      11         -0.519833        2.000000        0.11062115        0.00430390        0.08624045        0.00724224
      12         -0.518418        2.000000        0.11026425        0.00495258        0.08700736        0.00686490
      13         -0.514466        2.000000        0.11767515        0.00551795        0.08072490        0.00667730
      14         -0.512100        2.000000        0.11589184        0.01127465        0.07628258        0.00333534
      15         -0.490802        2.000000        0.10974263        0.01072910        0.05998718        0.00541274
      16         -0.488033        2.000000        0.10750903        0.00459212        0.05872187        0.01256325
      17         -0.484182        2.000000        0.11261265        0.00500363        0.05780260        0.01028824
      18         -0.483100        2.000000        0.11051928        0.00954899        0.05648810        0.01001715
      19         -0.481491        2.000000        0.11504180        0.00994117        0.05336353        0.00825482
      20         -0.480528        2.000000        0.11722365        0.00912937        0.05681894        0.00605231
      21         -0.479531        2.000000        0.10747292        0.00685980        0.06360428        0.00553493
      22         -0.478227        2.000000        0.11313873        0.00709137        0.06003503        0.00530734
      23         -0.477134        2.000000        0.11398178        0.00847603        0.05543081        0.00859985
      24         -0.475996        2.000000        0.11011105        0.00735873        0.06201788        0.00418754
      25         -0.473504        2.000000        0.11742364        0.00472389        0.05599797        0.00830155
      26         -0.473081        2.000000        0.11629257        0.01009136        0.05400560        0.00472867
      27         -0.471522        2.000000        0.11707637        0.00510241        0.05469150        0.00762487
      28         -0.469930        2.000000        0.11318227        0.00825783        0.05331585        0.00586778
      29         -0.469186        2.000000        0.11931518        0.00785451        0.05379736        0.00800675
      30         -0.467936        2.000000        0.11271965        0.00455802        0.06087266        0.01067219
      31         -0.467867        2.000000        0.11590185        0.00729200        0.05602149        0.00629227
      32         -0.463877        2.000000        0.12160070        0.00562827        0.05429135        0.00871507
      33         -0.422752        2.000000        0.17011112        0.00567007        0.03976409        0.01472826
      34         -0.420154        2.000000        0.17077146        0.00606749        0.03906718        0.01302335
      35         -0.417850        2.000000        0.17595355        0.01646987        0.03593027        0.00368906
      36         -0.413882        2.000000        0.19607886        0.00634100        0.03669037        0.00677669
      37         -0.410835        2.000000        0.17405765        0.00684443        0.03924553        0.00517385
      38         -0.410622        2.000000        0.16250159        0.00802468        0.03752905        0.00584477
      39         -0.410253        2.000000        0.18102867        0.00534760        0.03808276        0.00678707
      40         -0.409436        2.000000        0.16126594        0.00471563        0.03929056        0.00873843
      41         -0.407417        2.000000        0.19478589        0.00525125        0.03508164        0.00446263
      42         -0.406279        2.000000        0.18595898        0.00499077        0.04175084        0.00482801
      43         -0.403855        2.000000        0.18518888        0.00441006        0.04445350        0.00747482
      44         -0.402429        2.000000        0.18384133        0.00546422        0.03993672        0.00605223
      45         -0.401615        2.000000        0.19205893        0.00687409        0.03781737        0.00393922
      46         -0.401015        2.000000        0.18880048        0.00532353        0.03775510        0.00619410
      47         -0.399907        2.000000        0.19061352        0.00461940        0.03820952        0.00660171
      48         -0.399397        2.000000        0.18950804        0.00508017        0.03887191        0.00530083
      49         -0.397545        2.000000        0.18082300        0.00683598        0.04073848        0.00644764
      50         -0.396995        2.000000        0.19626729        0.00386347        0.03562146        0.00636705
      51         -0.385490        2.000000        0.30686112        0.00344389        0.02308736        0.00349797
      52         -0.380399        2.000000        0.31772532        0.00471753        0.01676312        0.00114928
      53         -0.378073        2.000000        0.32414200        0.00323099        0.01556170        0.00189177
      54         -0.377048        2.000000        0.30727022        0.00188630        0.01971175        0.00581616
      55         -0.374925        2.000000        0.31221075        0.00245774        0.01875819        0.00346519
      56         -0.372942        2.000000        0.30881480        0.00167450        0.01852602        0.00487378
      57         -0.371539        2.000000        0.30912498        0.00363480        0.02143907        0.00204044
      58         -0.366111        2.000000        0.30045152        0.00308694        0.03976583        0.00174950
      59         -0.365225        2.000000        0.30113809        0.00153547        0.04207510        0.00297298
      60         -0.363789        2.000000        0.29629963        0.00172616        0.04449134        0.00436624
      61         -0.361709        2.000000        0.29409070        0.00257037        0.04923090        0.00262638
      62         -0.361180        2.000000        0.29436383        0.00137938        0.04573108        0.00251655
      63         -0.358839        2.000000        0.29218568        0.00345281        0.04514628        0.00163445
      64         -0.353777        2.000000        0.31594354        0.00153178        0.04943308        0.00125715
      65         -0.280682        2.000000        0.24003620        0.00695617        0.00131722        0.02252570
      66         -0.279431        2.000000        0.23389104        0.01006956        0.00164466        0.02632430
      67         -0.275423        2.000000        0.22259308        0.02295033        0.00215078        0.01022201
      68         -0.273151        2.000000        0.21544318        0.01422825        0.00531117        0.02595475
      69         -0.270207        2.000000        0.20674219        0.02161979        0.00428539        0.02106607
      70         -0.269014        2.000000        0.20561769        0.02127626        0.00510396        0.02068706
      71         -0.267219        2.000000        0.21311203        0.01603771        0.00377725        0.02056339
      72         -0.265337        2.000000        0.22854022        0.01467427        0.00336018        0.02264932
      73         -0.264008        2.000000        0.21600121        0.01388981        0.00278429        0.02426845
      74         -0.262865        2.000000        0.21016657        0.01534589        0.00513791        0.01851743
      75         -0.262161        2.000000        0.22650659        0.01540339        0.00271933        0.01650028
      76         -0.261252        2.000000        0.19951136        0.01823503        0.00435830        0.01970508
      77         -0.258574        2.000000        0.22614378        0.01508970        0.00404208        0.01272383
      78         -0.256350        2.000000        0.25317003        0.01337241        0.00471641        0.00932383
      79         -0.255440        2.000000        0.21102329        0.01392597        0.00570802        0.01563820
      80         -0.255148        2.000000        0.24319180        0.01815413        0.00575540        0.01166010
      81         -0.253958        2.000000        0.20825588        0.01309820        0.00866909        0.01577800
      82         -0.251765        2.000000        0.24346675        0.01565249        0.00452925        0.01249780
      83         -0.251622        2.000000        0.21673723        0.02069777        0.00472541        0.01188679
      84         -0.251073        2.000000        0.21935682        0.00970892        0.00804116        0.02069164
      85         -0.249927        2.000000        0.21241199        0.01747410        0.00546177        0.01621460
      86         -0.249548        2.000000        0.23690797        0.01411648        0.00790846        0.01454289
      87         -0.249345        2.000000        0.22531376        0.01501897        0.00343172        0.01636885
      88         -0.247862        2.000000        0.19518878        0.02102823        0.00459293        0.01333153
      89         -0.247583        2.000000        0.22375290        0.01522196        0.00671582        0.02159598
      90         -0.246778        2.000000        0.23391813        0.01173241        0.00474028        0.01342532
      91         -0.245826        2.000000        0.22193341        0.01700101        0.01179306        0.01703945
      92         -0.245244        2.000000        0.21014549        0.01925514        0.00918850        0.01215692
      93         -0.244471        2.000000        0.22321530        0.01346106        0.00982655        0.01888005
      94         -0.243640        2.000000        0.22796404        0.01293180        0.00679839        0.01536898
      95         -0.243117        2.000000        0.25591973        0.01493871        0.00926337        0.01072374
      96         -0.242586        2.000000        0.22160339        0.01490093        0.00629587        0.01654501
      97         -0.241680        2.000000        0.24522472        0.01413167        0.00629425        0.01169553
      98         -0.240486        2.000000        0.21575369        0.01735115        0.00801041        0.01569426
      99         -0.239656        2.000000        0.23701681        0.00935712        0.00851386        0.01650731
     100         -0.238347        2.000000        0.27248138        0.01288225        0.00705065        0.01124828
     101         -0.238185        2.000000        0.24414403        0.00984385        0.01021139        0.01416959
     102         -0.237636        2.000000        0.23009893        0.02012652        0.00625539        0.01225633
     103         -0.235941        2.000000        0.24758277        0.01000947        0.00695479        0.01381206
     104         -0.235545        2.000000        0.29819763        0.01089079        0.00937041        0.01304083
     105         -0.234412        2.000000        0.20588559        0.01481109        0.00751410        0.01316443
     106         -0.233614        2.000000        0.24671303        0.01130680        0.00677301        0.01223594
     107         -0.233146        2.000000        0.18701598        0.01525605        0.00426321        0.01735775
     108         -0.231613        2.000000        0.23521895        0.00854462        0.00788336        0.01662520
     109         -0.231331        2.000000        0.24058659        0.01226606        0.00849779        0.01604674
     110         -0.230667        2.000000        0.24174511        0.01474865        0.01119911        0.01055796
     111         -0.229192        2.000000        0.28246286        0.00900682        0.00738513        0.01430066
     112         -0.227905        2.000000        0.25506588        0.01394381        0.00722848        0.01320063
     113         -0.227169        2.000000        0.19217682        0.01855794        0.00855571        0.01233040
     114         -0.226190        2.000000        0.15745791        0.01271609        0.00724877        0.01803931
     115         -0.225738        2.000000        0.22772761        0.01440734        0.00777717        0.01580961
     116         -0.224481        2.000000        0.18823235        0.01368208        0.00594721        0.01662306
     117         -0.224060        2.000000        0.23967239        0.01165928        0.00693063        0.01438216
     118         -0.223333        2.000000        0.18723885        0.02248984        0.00661490        0.01066537
     119         -0.222569        2.000000        0.19524304        0.01742987        0.00606305        0.01295864
     120         -0.221615        2.000000        0.24503252        0.01755243        0.00494893        0.01142696
     121         -0.221240        2.000000        0.20402844        0.02086301        0.00832272        0.01565716
     122         -0.219856        2.000000        0.22958070        0.01404998        0.00624619        0.01515223
     123         -0.219269        2.000000        0.26628481        0.01279961        0.00950004        0.01314447
     124         -0.218535        2.000000        0.20243205        0.01571125        0.00533368        0.01970437
     125         -0.215583        2.000000        0.19788003        0.01562856        0.00515861        0.01622509
     126         -0.214202        2.000000        0.27455845        0.01134019        0.00753900        0.01178142
     127         -0.212808        2.000000        0.28167299        0.00869586        0.00703541        0.01231772
     128         -0.212502        2.000000        0.27758425        0.01472281        0.00859549        0.01132256
     129         -0.208773        2.000000        0.22980911        0.01182058        0.00887326        0.01546507
     130         -0.207679        2.000000        0.26508465        0.01381454        0.00679509        0.01161857
     131         -0.206113        2.000000        0.25360053        0.01844696        0.00712227        0.00821637
     132         -0.204166        2.000000        0.21734025        0.01811225        0.01089805        0.01348856
     133         -0.201946        2.000000        0.19635022        0.01523248        0.01072648        0.01695414
     134         -0.201446        2.000000        0.20900420        0.01252714        0.01043697        0.01925984
     135         -0.199276        2.000000        0.24161433        0.01358857        0.01014224        0.01519161
     136         -0.198092        2.000000        0.18185993        0.01548602        0.01078824        0.01936584
     137         -0.195166        2.000000        0.14884289        0.02870211        0.00831066        0.01319536
     138         -0.194810        2.000000        0.16448798        0.02159046        0.01040760        0.01695128
     139         -0.193343        2.000000        0.03125673        0.02895252        0.00192449        0.01303232
     140         -0.191450        2.000000        0.02995113        0.00594491        0.00172117        0.03602247
     141         -0.188232        2.000000        0.01471496        0.03241896        0.00147602        0.01095814
     142         -0.176580        2.000000        0.00789024        0.00411267        0.00146892        0.03770384
     143         -0.170686        2.000000        0.00358984        0.02797919        0.00108794        0.01529456
     144         -0.169092        2.000000        0.00829578        0.03200345        0.00208349        0.01080673
     145         -0.167437        2.000000        0.00652802        0.02960317        0.00158946        0.01185321
     146         -0.166979        2.000000        0.00601177        0.02775206        0.00138360        0.01443879
     147         -0.163364        2.000000        0.00708379        0.00344895        0.00197204        0.04773262
     148         -0.161557        2.000000        0.00300494        0.01167741        0.00128345        0.02961167
     149         -0.159719        2.000000        0.00860899        0.03858397        0.00301699        0.01212076
     150         -0.156935        2.000000        0.01001406        0.03895568        0.00312723        0.01228621
     151         -0.142358        2.000000        0.00324627        0.00724865        0.00159156        0.04151748
     152         -0.138224        2.000000        0.00198741        0.00062547        0.00091089        0.03792769
     153         -0.137229        2.000000        0.00401304        0.03317097        0.00225179        0.01599934
     154         -0.135921        2.000000        0.00255324        0.01751424        0.00104758        0.03234469
     155         -0.135416        2.000000        0.00248460        0.04087323        0.00103583        0.00088079
     156         -0.133261        2.000000        0.00472304        0.03712110        0.00187545        0.01209365
     157         -0.129301        2.000000        0.00294999        0.02394960        0.00199476        0.02648859
     158         -0.127413        2.000000        0.00344930        0.03550625        0.00169582        0.01562138
     159         -0.100080        2.000000        0.00318110        0.00141945        0.00082089        0.04543484
     160         -0.093794        2.000000        0.00309369        0.04763580        0.00086194        0.00155659
     161         -0.026219        0.000000        0.03066055        0.00130238        0.01743908        0.00154905
     162         -0.018913        0.000000        0.01183760        0.00429619        0.01378312        0.00244611
     163         -0.018079        0.000000        0.00486113        0.00822149        0.01594091        0.00805207
     164         -0.015641        0.000000        0.00501760        0.01043707        0.01410208        0.01194886
     165         -0.013241        0.000000        0.00557785        0.01084889        0.01509793        0.01415530
     166         -0.005751        0.000000        0.01224911        0.02225678        0.01612631        0.01117691
     167         -0.004395        0.000000        0.01388584        0.01405419        0.01368518        0.01957957
     168         -0.000320        0.000000        0.01464843        0.01239720        0.01922494        0.02397624
     169         -0.000093        0.000000        0.01298254        0.01601732        0.01715047        0.02056789
     170          0.001488        0.000000        0.01388201        0.01401856        0.01510790        0.02363125
     171          0.003192        0.000000        0.01478372        0.01094546        0.01906863        0.02234824
     172          0.003519        0.000000        0.01298109        0.01897488        0.01200597        0.02300841
     173          0.006009        0.000000        0.01834681        0.02558886        0.02255248        0.01523647
     174          0.008158        0.000000        0.01259312        0.02449598        0.01552603        0.00932049
     175          0.017681        0.000000        0.00888085        0.01869117        0.02143086        0.03076279
     176          0.022620        0.000000        0.01162925        0.03567601        0.02279281        0.01554672
     177          0.023294        0.000000        0.01048560        0.02869282        0.02167126        0.02656830
     178          0.027136        0.000000        0.01050402        0.02061398        0.02446696        0.02925544
     179          0.028834        0.000000        0.01137812        0.02235614        0.02530177        0.02890193
     180          0.030825        0.000000        0.01929977        0.02008393        0.03461631        0.02623169
     181          0.049014        0.000000        0.02171310        0.03645439        0.02228339        0.05736411
     182          0.049875        0.000000        0.05826827        0.07026268        0.06269043        0.11424810
     183          0.052897        0.000000        0.05147107        0.06537882        0.05521621        0.08289267
     184          0.053500        0.000000        0.02279982        0.02240488        0.01835841        0.07528606
     185          0.059237        0.000000        0.07232762        0.15214179        0.06757893        0.05670141
     186          0.062553        0.000000        0.07711946        0.08683672        0.05675143        0.08249578
     187          0.067490        0.000000        0.07320135        0.05134433        0.06047542        0.10858085
     188          0.071288        0.000000        0.06421234        0.05773893        0.06044680        0.08987551
     189          0.071957        0.000000        0.06321814        0.05026809        0.06262217        0.11298850
     190          0.073433        0.000000        0.07349287        0.10472066        0.05732077        0.06440360
     191          0.075341        0.000000        0.06053146        0.07230113        0.05444790        0.09237961
     192          0.077256        0.000000        0.06904227        0.06662562        0.05463683        0.09373385
     193          0.081537        0.000000        0.06101859        0.12460261        0.05062896        0.03765129
     194          0.082500        0.000000        0.05349333        0.06240597        0.07654949        0.12653179
     195          0.083854        0.000000        0.07448607        0.10101550        0.05506110        0.06774603
     196          0.084837        0.000000        0.05569130        0.11309680        0.07255092        0.03604758
     197          0.085863        0.000000        0.06424140        0.08212841        0.06180783        0.07557067
     198          0.087976        0.000000        0.05477325        0.08257141        0.05262098        0.05655071
     199          0.089473        0.000000        0.05456705        0.07096956        0.06142557        0.05289340
     200          0.091857        0.000000        0.07884549        0.07257983        0.06394047        0.07540775
     201          0.093153        0.000000        0.07905247        0.07030283        0.06038111        0.06870738
     202          0.095144        0.000000        0.05839870        0.05673424        0.03733520        0.04738228
     203          0.096472        0.000000        0.06416610        0.04453458        0.05243658        0.06181772
     204          0.097741        0.000000        0.05383607        0.05765365        0.03628474        0.06333194
     205          0.097924        0.000000        0.06576114        0.05298450        0.05277441        0.07018714
     206          0.099914        0.000000        0.08376196        0.05421119        0.05438296        0.07706673
     207          0.101474        0.000000        0.07487994        0.06442316        0.04761610        0.05805354
     208          0.101954        0.000000        0.07694045        0.06137334        0.05181289        0.06224926
     209          0.103264        0.000000        0.09067454        0.04382593        0.04070778        0.05481296
     210          0.104237        0.000000        0.09628456        0.04304376        0.05054871        0.05917442
