# Projected DOS for atomic kind Si at iteration step i = 0, E(Fermi) =    -0.093733 a.u.
#     MO Eigenvalue [a.u.]      Occupation                 s                py                pz                px               d-2               d-1                d0               d+1               d+2
       1         -0.558194        2.000000        0.01735819        0.00022753        0.00161475        0.00011884        0.00002053        0.00004070        0.00020089        0.00002722        0.00002467
       2         -0.546126        2.000000        0.64729102        0.00414576        0.02424822        0.00237428        0.00067820        0.00044402        0.03053300        0.00028992        0.00130951
       3         -0.537042        2.000000        0.00624812        0.00332176        0.00093670        0.00062234        0.00004639        0.00018744        0.00012618        0.00006077        0.00029127
       4         -0.535109        2.000000        0.01142150        0.00183714        0.00131936        0.00477288        0.00040907        0.00012964        0.00014983        0.00025728        0.00013298
       5         -0.530668        2.000000        0.01504914        0.00318429        0.00091178        0.00504036        0.00038900        0.00015290        0.00016487        0.00018499        0.00039634
       6         -0.529195        2.000000        0.11245485        0.03857562        0.00223017        0.01380243        0.00169044        0.00168237        0.00110960        0.00060785        0.00482922
       7         -0.527083        2.000000        0.08819577        0.02238058        0.00188463        0.02073642        0.00219988        0.00070780        0.00091882        0.00101358        0.00231706
       8         -0.526880        2.000000        0.36588741        0.11385779        0.00974357        0.04572887        0.00568583        0.00578442        0.00629334        0.00215108        0.01639883
       9         -0.523626        2.000000        0.36192204        0.05729288        0.00739438        0.10757677        0.01286239        0.00235566        0.00567297        0.00573304        0.00686576
      10         -0.521994        2.000000        0.15762299        0.02509654        0.00380524        0.04708023        0.00591205        0.00111481        0.00278064        0.00219219        0.00330996
      11         -0.520490        2.000000        0.43518506        0.05725538        0.00913830        0.13857071        0.01816897        0.00318676        0.00665527        0.00600494        0.00742731
      12         -0.518361        2.000000        0.47138927        0.09347337        0.00838376        0.12039532        0.01513572        0.00455585        0.00870169        0.00539218        0.01145444
      13         -0.515621        2.000000        0.48777462        0.11035366        0.00857179        0.11680647        0.01407051        0.00513053        0.00639028        0.00562809        0.01485489
      14         -0.512922        2.000000        0.49606360        0.16238311        0.00774403        0.07145273        0.00954298        0.00775008        0.00685557        0.00330447        0.02093050
      15         -0.490324        2.000000        0.00283885        0.00213159        0.00064825        0.00096610        0.00025380        0.00031693        0.00018235        0.00018213        0.00021236
      16         -0.489034        2.000000        0.00463847        0.00115242        0.00047857        0.00348059        0.00032759        0.00021973        0.00015436        0.00031768        0.00044956
      17         -0.484280        2.000000        0.00933168        0.00306623        0.00038441        0.00513666        0.00083679        0.00021894        0.00016529        0.00046065        0.00074273
      18         -0.483279        2.000000        0.04389544        0.01765462        0.00083715        0.01971963        0.00354158        0.00118719        0.00026243        0.00145434        0.00359933
      19         -0.482339        2.000000        0.20606922        0.08221003        0.00096253        0.08568054        0.01714614        0.00521578        0.00063254        0.00581017        0.01773552
      20         -0.480759        2.000000        0.12013345        0.04249871        0.00131771        0.05400444        0.01071115        0.00236802        0.00027647        0.00441958        0.00989596
      21         -0.479224        2.000000        0.02096564        0.00726778        0.00060470        0.00914048        0.00186668        0.00071163        0.00018120        0.00087691        0.00191508
      22         -0.478646        2.000000        0.01082289        0.00505853        0.00050530        0.00440058        0.00101735        0.00052453        0.00019693        0.00058957        0.00097410
      23         -0.477983        2.000000        0.12262970        0.03837190        0.00065298        0.06430304        0.01006174        0.00331288        0.00052320        0.00387214        0.01054913
      24         -0.477126        2.000000        0.31210913        0.12704447        0.00140663        0.11738247        0.03351715        0.00904787        0.00062615        0.00852173        0.02729831
      25         -0.475346        2.000000        0.36235556        0.08875617        0.00173448        0.20033390        0.03689182        0.00584671        0.00082938        0.01564176        0.03141027
      26         -0.473416        2.000000        0.39552335        0.16284583        0.00162375        0.13511514        0.04913900        0.01247592        0.00064970        0.00999458        0.03211327
      27         -0.472550        2.000000        0.38224970        0.15056536        0.00121107        0.14589902        0.04610430        0.01113085        0.00108046        0.01182330        0.03133880
      28         -0.471309        2.000000        0.39356934        0.13104231        0.00141425        0.15837210        0.05225264        0.01002953        0.00155652        0.01135712        0.02953511
      29         -0.470335        2.000000        0.37706043        0.21016218        0.00219994        0.05268483        0.00989406        0.01694486        0.00133065        0.00351799        0.08401477
      30         -0.469208        2.000000        0.03825421        0.01927881        0.00042806        0.00822889        0.00218492        0.00156912        0.00020034        0.00071724        0.00644831
      31         -0.467813        2.000000        0.39584625        0.15547313        0.00117062        0.15342449        0.03313197        0.01125345        0.00119129        0.00920267        0.04493241
      32         -0.463887        2.000000        0.39922305        0.11411342        0.00265598        0.16910449        0.05959935        0.00803255        0.00157315        0.01310697        0.03452777
      33         -0.423030        2.000000        0.01459073        0.00787188        0.00507092        0.01347810        0.00041952        0.00093400        0.00130994        0.00096827        0.00043082
      34         -0.419660        2.000000        0.02049134        0.01207456        0.00564745        0.01892548        0.00042645        0.00108362        0.00167737        0.00155063        0.00036277
      35         -0.418295        2.000000        0.03356236        0.04480138        0.01009112        0.00300045        0.00033540        0.00404019        0.00245332        0.00049509        0.00120873
      36         -0.413759        2.000000        0.15688112        0.07564989        0.02789987        0.13208195        0.00541424        0.00884038        0.00825698        0.01317518        0.00332128
      37         -0.412694        2.000000        0.14374217        0.15193927        0.02721673        0.03288303        0.00254262        0.01487543        0.00728792        0.00538246        0.00626716
      38         -0.411190        2.000000        0.14895982        0.08290335        0.02571790        0.11775524        0.00430394        0.00869315        0.00749799        0.01241664        0.00327268
      39         -0.410704        2.000000        0.22572061        0.08894612        0.04099120        0.19530809        0.00977775        0.01062001        0.01155834        0.02226619        0.00663637
      40         -0.409397        2.000000        0.12415768        0.07702542        0.02537451        0.07971797        0.00459733        0.00959034        0.00662015        0.00873030        0.00516555
      41         -0.406730        2.000000        0.01827568        0.00924435        0.00589117        0.00764951        0.00103265        0.00189167        0.00144436        0.00111094        0.00238935
      42         -0.406489        2.000000        0.10906834        0.07985803        0.02591949        0.04037038        0.00509096        0.01117255        0.00707254        0.00498350        0.00906580
      43         -0.404407        2.000000        0.21159024        0.11253697        0.05625301        0.08156724        0.01289227        0.01536936        0.01349041        0.01243040        0.02408574
      44         -0.403538        2.000000        0.19401587        0.07458702        0.04338696        0.11225170        0.02327831        0.01006101        0.01359781        0.01597231        0.01191207
      45         -0.402851        2.000000        0.06605420        0.02740602        0.01374227        0.03695902        0.00649979        0.00449609        0.00428733        0.00438417        0.00566762
      46         -0.402716        2.000000        0.10918139        0.04176124        0.02646986        0.05811747        0.01135239        0.00832658        0.00784546        0.00787443        0.00858265
      47         -0.401430        2.000000        0.23542652        0.10293589        0.04930724        0.11219198        0.02554502        0.01433899        0.01714991        0.01428991        0.01928314
      48         -0.400365        2.000000        0.28332686        0.13640768        0.06057533        0.14334913        0.03149988        0.01618719        0.02044703        0.01883734        0.02246159
      49         -0.398896        2.000000        0.25002645        0.13930831        0.06383206        0.08745691        0.01704751        0.01973168        0.01483840        0.01269705        0.02922912
      50         -0.396101        2.000000        0.28881704        0.13357054        0.07380232        0.13905716        0.02800675        0.01521043        0.02143680        0.02004437        0.02685948
      51         -0.385406        2.000000        0.02952596        0.00632184        0.07792363        0.00733830        0.00150342        0.00258051        0.00731710        0.00278894        0.00213978
      52         -0.381089        2.000000        0.03585608        0.01116668        0.07924630        0.00423279        0.00110623        0.00585674        0.00665254        0.00142198        0.00288001
      53         -0.378948        2.000000        0.09923213        0.01061114        0.26094106        0.01375939        0.00458990        0.00473615        0.01254957        0.00753807        0.00263107
      54         -0.377043        2.000000        0.11482360        0.02373873        0.23960564        0.01974570        0.00485307        0.01124577        0.01419572        0.00930687        0.00568977
      55         -0.375937        2.000000        0.08627207        0.01952972        0.14494141        0.01395606        0.00455110        0.00817787        0.01279022        0.00725599        0.00563156
      56         -0.374288        2.000000        0.11391264        0.01695370        0.20340853        0.02997376        0.00777690        0.00656624        0.01542667        0.01478283        0.00349542
      57         -0.373242        2.000000        0.05606395        0.01250300        0.13345015        0.00692457        0.00201644        0.00575947        0.00822470        0.00350462        0.00325058
      58         -0.366323        2.000000        0.09771915        0.02816773        0.16892097        0.01331140        0.00347332        0.00949513        0.01234267        0.00400748        0.00694583
      59         -0.365015        2.000000        0.12359471        0.02451659        0.17166987        0.03079432        0.00832278        0.00903159        0.01328049        0.00834637        0.00583282
      60         -0.363803        2.000000        0.13000990        0.03057645        0.18484733        0.03183062        0.00701810        0.00951857        0.01500718        0.00995850        0.00746960
      61         -0.363141        2.000000        0.12291608        0.03344466        0.16087383        0.02606229        0.00614998        0.00872291        0.01527523        0.00906525        0.00770832
      62         -0.361793        2.000000        0.09388822        0.01206644        0.13421841        0.02843495        0.00755554        0.00377785        0.01092420        0.01008217        0.00280196
      63         -0.358506        2.000000        0.08776398        0.02460039        0.12799729        0.01683318        0.00373577        0.00808588        0.00933559        0.00490667        0.00553282
      64         -0.351582        2.000000        0.10657738        0.01706009        0.25498369        0.01983496        0.00402212        0.00445671        0.01277492        0.00578706        0.00413529
      65         -0.280223        2.000000        0.00376194        0.08519077        0.38966560        0.18196744        0.00104294        0.00329131        0.01981484        0.00410662        0.00121679
      66         -0.279219        2.000000        0.00429020        0.08733736        0.40179747        0.19035139        0.00190602        0.00405632        0.01931521        0.00569617        0.00227867
      67         -0.276989        2.000000        0.00729379        0.21935307        0.40454279        0.06591277        0.00655471        0.00357924        0.01639433        0.00360506        0.00338940
      68         -0.273401        2.000000        0.01450373        0.08564969        0.31836902        0.12749718        0.01091845        0.00597551        0.01785123        0.00554892        0.01313063
      69         -0.271079        2.000000        0.01287480        0.08682868        0.30095551        0.11608436        0.00971856        0.00585210        0.01190732        0.00331118        0.00990052
      70         -0.269577        2.000000        0.01417379        0.08750422        0.30485777        0.09458123        0.01229209        0.00511595        0.01326962        0.00410884        0.00834967
      71         -0.267496        2.000000        0.01764725        0.11500234        0.30934211        0.16534877        0.01036856        0.00919382        0.01540695        0.00260906        0.01786187
      72         -0.265880        2.000000        0.00668126        0.04604143        0.13564115        0.03155435        0.00294137        0.00433742        0.01153047        0.00235738        0.00622704
      73         -0.264411        2.000000        0.00961499        0.07029350        0.13521817        0.08480564        0.00635464        0.00475800        0.00829959        0.00411216        0.00734626
      74         -0.262700        2.000000        0.01635922        0.07796281        0.28797952        0.11237072        0.01514642        0.00431258        0.01705878        0.00530181        0.00866289
      75         -0.262073        2.000000        0.01070350        0.06605543        0.23703736        0.07721321        0.01076650        0.00502779        0.01968156        0.00406323        0.00528524
      76         -0.261494        2.000000        0.01422043        0.09016581        0.27583832        0.10091862        0.00893120        0.00441891        0.01899741        0.00390438        0.01432151
      77         -0.258804        2.000000        0.00926559        0.12578698        0.24246119        0.20191025        0.00906339        0.00894031        0.04285739        0.00560640        0.00964717
      78         -0.257210        2.000000        0.01371902        0.18099956        0.20061195        0.19270757        0.01178094        0.00646550        0.04855021        0.00835172        0.00962353
      79         -0.256430        2.000000        0.01239465        0.12471274        0.23022703        0.10503162        0.00997950        0.00374426        0.03704044        0.00580867        0.00833116
      80         -0.255913        2.000000        0.00937400        0.07620906        0.18330658        0.08278040        0.00399401        0.00665832        0.03349661        0.00198215        0.00791511
      81         -0.254711        2.000000        0.02376409        0.10951011        0.19710159        0.12037298        0.01567435        0.00296943        0.03437604        0.00380843        0.01032912
      82         -0.254038        2.000000        0.00809421        0.14870453        0.21979099        0.09296772        0.00656879        0.00440021        0.04700767        0.01046120        0.00483056
      83         -0.252370        2.000000        0.01134026        0.17536662        0.19273055        0.10717418        0.00908775        0.00255466        0.04135871        0.01052037        0.00826391
      84         -0.251191        2.000000        0.01146272        0.08408811        0.18115409        0.08529188        0.00965339        0.00427761        0.03469316        0.00426545        0.00563039
      85         -0.250634        2.000000        0.00888883        0.10061048        0.18673719        0.08139487        0.00843232        0.00770093        0.04470920        0.00624063        0.00814632
      86         -0.250054        2.000000        0.01734591        0.11298162        0.19175932        0.16826900        0.01589386        0.00533227        0.03850167        0.00561508        0.00776443
      87         -0.249303        2.000000        0.01052226        0.08094030        0.11832322        0.07098401        0.00507652        0.00626657        0.01657573        0.00273822        0.01005514
      88         -0.248549        2.000000        0.01399024        0.15634855        0.19195754        0.12889159        0.01487648        0.00632759        0.03770520        0.00722840        0.00867048
      89         -0.247655        2.000000        0.01518857        0.08256263        0.08767345        0.09862695        0.01537979        0.00193260        0.01375746        0.00323887        0.00683993
      90         -0.247023        2.000000        0.01861210        0.08724527        0.20253220        0.14250480        0.01314983        0.00470869        0.03814686        0.00576403        0.00962262
      91         -0.246179        2.000000        0.02109759        0.14907760        0.19191320        0.04594004        0.00445520        0.00241164        0.04249409        0.00415731        0.02388376
      92         -0.245810        2.000000        0.02206450        0.12740457        0.17709018        0.12336835        0.01241789        0.00420458        0.03405777        0.00454506        0.01764704
      93         -0.244518        2.000000        0.01527593        0.12321463        0.14318649        0.07162534        0.01185935        0.00541790        0.02537698        0.00520302        0.01007958
      94         -0.243501        2.000000        0.00853313        0.05556285        0.21232636        0.07199703        0.00725423        0.00534432        0.05379416        0.00683140        0.00839644
      95         -0.243286        2.000000        0.02688819        0.18210183        0.17273894        0.10219279        0.01313303        0.00484593        0.01899773        0.00465104        0.02386651
      96         -0.242325        2.000000        0.01553190        0.09550029        0.12713362        0.06384489        0.00747319        0.00391014        0.02116871        0.00274268        0.01380765
      97         -0.242017        2.000000        0.01578710        0.06771539        0.16736356        0.12615284        0.01443421        0.00642426        0.03243455        0.00364063        0.01147612
      98         -0.240629        2.000000        0.02397893        0.10576679        0.16216912        0.13643257        0.01875703        0.00382091        0.02910420        0.00334682        0.01322028
      99         -0.239867        2.000000        0.00657779        0.04748165        0.19668120        0.06000609        0.00572828        0.00695316        0.05678270        0.00389362        0.00428555
     100         -0.238448        2.000000        0.00774487        0.06056303        0.18900086        0.05281756        0.00736940        0.00477782        0.05817590        0.00512007        0.00545876
     101         -0.237924        2.000000        0.01149312        0.06488902        0.18476548        0.10639541        0.00900758        0.00639708        0.05072472        0.00440659        0.00854354
     102         -0.237741        2.000000        0.01898741        0.10736993        0.13935336        0.14291400        0.01887869        0.00469618        0.02948863        0.00376033        0.01242713
     103         -0.237193        2.000000        0.01357255        0.08886341        0.15671530        0.07655505        0.00622088        0.00330978        0.04612161        0.00248371        0.01412712
     104         -0.234904        2.000000        0.00721915        0.06958205        0.11156294        0.08463320        0.00618797        0.00435106        0.03777908        0.00503597        0.00794098
     105         -0.234061        2.000000        0.00958186        0.03671314        0.10330461        0.04030963        0.00762349        0.00320989        0.02200009        0.00253778        0.00571166
     106         -0.233220        2.000000        0.01909633        0.14666453        0.15760985        0.11706814        0.01067471        0.00633263        0.02641989        0.00497384        0.02294140
     107         -0.232280        2.000000        0.01563792        0.11431958        0.13901741        0.11206544        0.01032338        0.00757816        0.02414317        0.00737396        0.01581633
     108         -0.231865        2.000000        0.00708789        0.05915559        0.15152020        0.06620059        0.00542558        0.00543037        0.05092282        0.00354998        0.00911393
     109         -0.231576        2.000000        0.01432320        0.04354542        0.17415609        0.06408704        0.01401275        0.00390031        0.04390907        0.00597508        0.00525127
     110         -0.231039        2.000000        0.00687456        0.08447075        0.08357359        0.02620607        0.00379734        0.00339953        0.01055119        0.00379378        0.01052228
     111         -0.229704        2.000000        0.00618215        0.04145729        0.12444917        0.05549350        0.00630482        0.00659802        0.03056340        0.00260639        0.00547063
     112         -0.228595        2.000000        0.00708662        0.08460641        0.12122685        0.07451331        0.00724976        0.00646787        0.02346000        0.00606361        0.00888261
     113         -0.227998        2.000000        0.01034104        0.13297605        0.14159614        0.07000076        0.01916181        0.00459879        0.02249253        0.00909058        0.00682908
     114         -0.226658        2.000000        0.00459190        0.04786025        0.09115971        0.11896241        0.00668796        0.00673251        0.01272223        0.00470231        0.00980048
     115         -0.225867        2.000000        0.00678242        0.07513414        0.09328660        0.10950148        0.00756921        0.00561583        0.01804443        0.00618728        0.01171944
     116         -0.225216        2.000000        0.00808173        0.09417146        0.09607530        0.08614179        0.01200587        0.00355521        0.01550195        0.00606308        0.00983948
     117         -0.224530        2.000000        0.00462920        0.06577469        0.07219161        0.06056179        0.00501804        0.00278446        0.01783346        0.00401907        0.00771988
     118         -0.223993        2.000000        0.00919351        0.18776043        0.11876696        0.10195476        0.01932553        0.00619101        0.01722909        0.00973844        0.01131733
     119         -0.222858        2.000000        0.00479504        0.05010185        0.12881064        0.07910928        0.00731095        0.00641635        0.02377895        0.00443288        0.00870480
     120         -0.222538        2.000000        0.00270171        0.03972020        0.08695638        0.04326646        0.00415182        0.00382046        0.02105508        0.00302427        0.00402116
     121         -0.220898        2.000000        0.00695634        0.07153038        0.08549855        0.05424551        0.01060442        0.00393735        0.01276812        0.00488054        0.00581690
     122         -0.220524        2.000000        0.00335982        0.02783598        0.07281862        0.03886976        0.00232414        0.00399005        0.02422396        0.00193899        0.00453215
     123         -0.219407        2.000000        0.00490585        0.02973627        0.07097699        0.04210053        0.00460521        0.00401515        0.01789678        0.00209069        0.00440380
     124         -0.218356        2.000000        0.00672867        0.05772610        0.12053249        0.04161943        0.01010098        0.00355707        0.02574451        0.00508366        0.00562927
     125         -0.215066        2.000000        0.00365842        0.03062249        0.07506682        0.02121514        0.00497354        0.00245962        0.01726759        0.00275749        0.00262526
     126         -0.213467        2.000000        0.00223659        0.02581043        0.08184697        0.01457962        0.00260582        0.00299413        0.02047983        0.00320312        0.00332848
     127         -0.213041        2.000000        0.00551229        0.03366134        0.08892508        0.03353112        0.00549931        0.00249810        0.02205539        0.00358586        0.00530611
     128         -0.212024        2.000000        0.00354095        0.03328264        0.09555321        0.02184589        0.00582337        0.00308371        0.02288885        0.00287092        0.00179968
     129         -0.208556        2.000000        0.00438831        0.03370040        0.08448655        0.02855276        0.00613936        0.00280590        0.02150654        0.00429896        0.00255572
     130         -0.208499        2.000000        0.00229372        0.01730107        0.08293971        0.02318670        0.00355430        0.00201719        0.02078924        0.00283427        0.00218021
     131         -0.207114        2.000000        0.00264536        0.03417745        0.05318944        0.01987102        0.00282990        0.00301399        0.01213887        0.00253952        0.00323971
     132         -0.204326        2.000000        0.00037940        0.01037361        0.02187248        0.01082950        0.00099039        0.00101874        0.00330070        0.00083699        0.00121939
     133         -0.203381        2.000000        0.00094020        0.01930720        0.03738757        0.02020717        0.00131173        0.00188932        0.00848518        0.00132550        0.00180733
     134         -0.201438        2.000000        0.00057974        0.00804319        0.03195021        0.01416673        0.00143915        0.00151462        0.00740929        0.00070351        0.00133016
     135         -0.199970        2.000000        0.00144669        0.01370920        0.05289186        0.02254398        0.00242148        0.00120241        0.01680841        0.00298305        0.00080518
     136         -0.198113        2.000000        0.00444384        0.01878324        0.11555052        0.02066909        0.00347032        0.00284879        0.04229141        0.00291578        0.00223963
     137         -0.195768        2.000000        0.00056335        0.01813730        0.01618170        0.00994624        0.00102929        0.00099710        0.00318315        0.00071263        0.00087032
     138         -0.195263        2.000000        0.00066129        0.08393482        0.01397397        0.15047816        0.00315172        0.00320253        0.00252033        0.00549926        0.00208320
     139         -0.194178        2.000000        0.00117060        0.43023486        0.02717069        0.21670313        0.00469672        0.01332524        0.00467668        0.00887626        0.00946547
     140         -0.191476        2.000000        0.00184606        0.14133256        0.02786619        0.66045720        0.01424284        0.00659185        0.00624332        0.02092874        0.00460172
     141         -0.188755        2.000000        0.00211515        0.60489547        0.02914768        0.23511556        0.00665319        0.01926840        0.00606136        0.01169476        0.01076368
     142         -0.176832        2.000000        0.00209913        0.06796868        0.02220923        0.73833805        0.07015614        0.00353289        0.00471723        0.02300162        0.00833596
     143         -0.171164        2.000000        0.00106142        0.53241976        0.01596534        0.28809153        0.02833083        0.01653277        0.00236692        0.01007152        0.05346850
     144         -0.170171        2.000000        0.00114531        0.61108994        0.01770001        0.20290969        0.02174583        0.01511338        0.00452670        0.00728731        0.06190135