# Projected DOS for atomic kind H at iteration step i = 0, E(Fermi) =    -0.094530 a.u.
#     MO Eigenvalue [a.u.]      Occupation                 s                py                pz                px
       1         -0.558373        2.000000        0.11092798        0.00143408        0.08015428        0.00090979
       2         -0.543279        2.000000        0.14883612        0.00084256        0.11590567        0.00040796
       3         -0.537797        2.000000        0.10449075        0.00535168        0.07171177        0.00776281
       4         -0.534513        2.000000        0.09997208        0.00875339        0.07223580        0.00365484
       5         -0.530516        2.000000        0.10386079        0.00301098        0.07303129        0.01001642
       6         -0.529060        2.000000        0.10869190        0.00580919        0.07022616        0.00737470
       7         -0.527063        2.000000        0.10306344        0.01295485        0.07014424        0.00154095
       8         -0.523967        2.000000        0.11251060        0.00724795        0.08283416        0.00493527
       9         -0.521687        2.000000        0.10805938        0.00467932        0.06936430        0.01041195
      10         -0.518269        2.000000        0.11148509        0.00643060        0.08413730        0.00602967
      11         -0.517208        2.000000        0.11057105        0.00370437        0.08525000        0.00760248
      12         -0.516871        2.000000        0.10970491        0.00525935        0.08029904        0.00744680
      13         -0.513080        2.000000        0.11719554        0.00631138        0.07951863        0.00630567
      14         -0.510146        2.000000        0.11401560        0.00971556        0.07646860        0.00407165
      15         -0.491332        2.000000        0.10903291        0.01025444        0.06044179        0.00567271
      16         -0.487211        2.000000        0.10916120        0.00478007        0.05870587        0.01351945
      17         -0.485580        2.000000        0.11274152        0.00616904        0.05658950        0.01260969
      18         -0.483292        2.000000        0.11444887        0.00925994        0.05841408        0.00761082
      19         -0.481586        2.000000        0.11594751        0.00996000        0.05696043        0.00703298
      20         -0.481210        2.000000        0.11845318        0.00927708        0.05751889        0.00664312
      21         -0.479383        2.000000        0.11818812        0.00673700        0.06043187        0.00586870
      22         -0.477571        2.000000        0.10989893        0.00660311        0.05867368        0.00752975
      23         -0.475811        2.000000        0.11510298        0.01024003        0.05662248        0.00682693
      24         -0.474521        2.000000        0.11166760        0.00839256        0.05963634        0.00521583
      25         -0.471471        2.000000        0.11809723        0.00800987        0.05559021        0.00478425
      26         -0.470728        2.000000        0.11114855        0.00787497        0.05387645        0.00531656
      27         -0.469260        2.000000        0.11794780        0.00494928        0.05714530        0.01304072
      28         -0.468818        2.000000        0.11699930        0.00595058        0.05520297        0.00532297
      29         -0.468361        2.000000        0.11201484        0.00553166        0.05358614        0.00749409
      30         -0.466251        2.000000        0.11387267        0.00607737        0.05447789        0.00738166
      31         -0.466007        2.000000        0.11462533        0.00710439        0.05619127        0.00714506
      32         -0.463710        2.000000        0.11891879        0.00692788        0.05329738        0.00628317
      33         -0.423724        2.000000        0.17147841        0.00399618        0.04121969        0.01640637
      34         -0.420384        2.000000        0.17165883        0.00571307        0.04043737        0.01259553
      35         -0.418332        2.000000        0.18438997        0.01785343        0.03450482        0.00249747
      36         -0.414066        2.000000        0.20385132        0.00803692        0.03822911        0.00524725
      37         -0.411979        2.000000        0.17149887        0.00579124        0.03871770        0.00617425
      38         -0.410301        2.000000        0.19108986        0.00722974        0.03837356        0.00804852
      39         -0.409077        2.000000        0.17831147        0.00700731        0.03511486        0.00705324
      40         -0.408292        2.000000        0.18223269        0.00497521        0.03647416        0.00883069
      41         -0.407566        2.000000        0.17198297        0.00623682        0.03884322        0.00528357
      42         -0.406274        2.000000        0.18135014        0.00505426        0.04474024        0.00497331
      43         -0.404640        2.000000        0.19300472        0.00466675        0.04031953        0.00649839
      44         -0.402866        2.000000        0.19070816        0.00662619        0.03952812        0.00561712
      45         -0.401821        2.000000        0.18834778        0.00505105        0.04098394        0.00562991
      46         -0.399202        2.000000        0.18755608        0.00464746        0.03861178        0.00748132
      47         -0.398348        2.000000        0.18432633        0.00633948        0.03761445        0.00488044
      48         -0.397612        2.000000        0.18569164        0.00687867        0.03831579        0.00538224
      49         -0.395522        2.000000        0.18911407        0.00444482        0.03590113        0.00556036
      50         -0.393302        2.000000        0.18628279        0.00570806        0.03616529        0.00394989
      51         -0.387382        2.000000        0.29702662        0.00428275        0.02423355        0.00380796
      52         -0.381520        2.000000        0.32069208        0.00359601        0.02001886        0.00339320
      53         -0.379117        2.000000        0.31822653        0.00432751        0.01855433        0.00173273
      54         -0.376181        2.000000        0.30571657        0.00264076        0.02273581        0.00399280
      55         -0.375318        2.000000        0.30982182        0.00240034        0.02038823        0.00494781
      56         -0.372712        2.000000        0.31326063        0.00516233        0.01934367        0.00186840
      57         -0.370156        2.000000        0.31450663        0.00180492        0.01901428        0.00472428
      58         -0.366486        2.000000        0.29909162        0.00228356        0.04222509        0.00307498
      59         -0.364019        2.000000        0.29353912        0.00228892        0.04435459        0.00230223
      60         -0.361724        2.000000        0.29132141        0.00270159        0.04809241        0.00318255
      61         -0.360506        2.000000        0.29519759        0.00189888        0.04299298        0.00221973
      62         -0.358184        2.000000        0.29494933        0.00226130        0.04099249        0.00178734
      63         -0.357600        2.000000        0.29159708        0.00247150        0.04179524        0.00165373
      64         -0.353908        2.000000        0.31783830        0.00109729        0.04917471        0.00098383
      65         -0.280275        2.000000        0.23718150        0.00770000        0.00112365        0.02251810
      66         -0.277600        2.000000        0.22861471        0.01131370        0.00199101        0.02814794
      67         -0.273810        2.000000        0.22533366        0.02835795        0.00213868        0.00781883
      68         -0.271300        2.000000        0.21018824        0.01567829        0.00514972        0.02618368
      69         -0.269704        2.000000        0.21637065        0.02897618        0.00443689        0.01977932
      70         -0.268431        2.000000        0.20968615        0.01211120        0.00375776        0.02221440
      71         -0.266567        2.000000        0.22665787        0.01239907        0.00309487        0.02539026
      72         -0.264413        2.000000        0.21127325        0.01804407        0.00441138        0.01784840
      73         -0.263219        2.000000        0.22153991        0.01414216        0.00454227        0.01992780
      74         -0.262045        2.000000        0.21346377        0.01964261        0.00396194        0.01358307
      75         -0.260476        2.000000        0.21861346        0.01301416        0.00328925        0.02052668
      76         -0.259970        2.000000        0.19484162        0.01561065        0.00406257        0.02111135
      77         -0.258104        2.000000        0.22819759        0.01296271        0.00419939        0.01453489
      78         -0.255239        2.000000        0.27238780        0.01387600        0.00679104        0.00884972
      79         -0.253588        2.000000        0.24493002        0.01735590        0.00572204        0.01211320
      80         -0.253470        2.000000        0.26136546        0.00906892        0.00714771        0.01445661
      81         -0.252730        2.000000        0.24055369        0.01444389        0.00683385        0.01415708
      82         -0.252548        2.000000        0.19100103        0.02380978        0.00484559        0.01253280
      83         -0.251799        2.000000        0.23253050        0.01796496        0.00269541        0.01210660
      84         -0.251248        2.000000        0.21232217        0.01638521        0.00478172        0.01530703
      85         -0.249637        2.000000        0.25113214        0.01345274        0.00687391        0.01467189
      86         -0.249276        2.000000        0.22275794        0.01365587        0.00988270        0.01754455
      87         -0.248935        2.000000        0.25077291        0.01378024        0.00821066        0.01889876
      88         -0.247686        2.000000        0.25115202        0.01695138        0.00636202        0.01172367
      89         -0.246595        2.000000        0.19649514        0.01843673        0.00685511        0.01996013
      90         -0.246052        2.000000        0.22757957        0.01176245        0.00668850        0.01627153
      91         -0.245633        2.000000        0.23998989        0.00920442        0.01054385        0.01626830
      92         -0.244379        2.000000        0.20503698        0.02047301        0.01287654        0.01196754
      93         -0.244216        2.000000        0.27260596        0.01259242        0.00757670        0.00990586
      94         -0.242837        2.000000        0.21626481        0.01780073        0.00640670        0.01685887
      95         -0.242489        2.000000        0.22537155        0.01426450        0.01011295        0.01402451
      96         -0.241849        2.000000        0.20276026        0.01819955        0.00659302        0.01508691
      97         -0.241435        2.000000        0.24831610        0.01391069        0.00792011        0.01185842
      98         -0.240705        2.000000        0.25795550        0.01309050        0.01033884        0.01320390
      99         -0.240199        2.000000        0.17469238        0.01470513        0.00474536        0.01737804
     100         -0.238725        2.000000        0.22841001        0.01222420        0.00670517        0.01442954
     101         -0.238015        2.000000        0.20775290        0.01478945        0.00980969        0.01930827
     102         -0.236821        2.000000        0.26553250        0.01330906        0.00942145        0.01005020
     103         -0.236432        2.000000        0.24305184        0.01162480        0.00610188        0.01563433
     104         -0.235682        2.000000        0.25382933        0.01116666        0.00594103        0.01346948
     105         -0.234339        2.000000        0.22681100        0.00946555        0.00598649        0.01572706
     106         -0.233115        2.000000        0.22451298        0.01383669        0.01193444        0.01450380
     107         -0.231779        2.000000        0.19266218        0.01677554        0.00554410        0.01458626
     108         -0.231359        2.000000        0.25986638        0.00846600        0.00844456        0.01150703
     109         -0.230655        2.000000        0.26061166        0.01253568        0.00920553        0.01513199
     110         -0.230487        2.000000        0.26189640        0.01202381        0.00950318        0.01049236
     111         -0.229590        2.000000        0.24972579        0.01333835        0.00642742        0.01299894
     112         -0.228327        2.000000        0.23343066        0.01482274        0.00592244        0.01589283
     113         -0.227432        2.000000        0.19452899        0.01530778        0.00479302        0.01693247
     114         -0.226611        2.000000        0.21265206        0.01541837        0.00950931        0.01261823
     115         -0.225915        2.000000        0.19745986        0.01946443        0.00723731        0.01068661
     116         -0.224723        2.000000        0.18017092        0.01113327        0.00648797        0.01920977
     117         -0.224060        2.000000        0.25509687        0.01303826        0.00813982        0.01300754
     118         -0.222599        2.000000        0.17477078        0.01702803        0.00816163        0.01874780
     119         -0.221911        2.000000        0.21888368        0.01582184        0.00704859        0.01378832
     120         -0.220994        2.000000        0.17804732        0.02382425        0.00752005        0.01135527
     121         -0.220018        2.000000        0.24636939        0.01436961        0.00578935        0.01239295
     122         -0.219910        2.000000        0.22092037        0.01245723        0.00760110        0.01422078
     123         -0.219381        2.000000        0.20716520        0.01791477        0.00534883        0.01507754
     124         -0.217598        2.000000        0.23040130        0.01679809        0.00650095        0.01425089
     125         -0.216443        2.000000        0.19996106        0.01383177        0.00606756        0.01578343
     126         -0.213695        2.000000        0.23982787        0.01347167        0.00775865        0.01570875
     127         -0.212849        2.000000        0.28159283        0.00948581        0.00758826        0.01334574
     128         -0.212112        2.000000        0.27256473        0.01233327        0.00910181        0.01267207
     129         -0.208853        2.000000        0.20825711        0.01318542        0.00695868        0.01673422
     130         -0.208062        2.000000        0.31230069        0.00801793        0.00881629        0.01187077
     131         -0.205264        2.000000        0.18122439        0.02159094        0.00711583        0.01383658
     132         -0.204124        2.000000        0.25477360        0.01416917        0.00994655        0.01003425
     133         -0.200911        2.000000        0.25688259        0.01265567        0.01224008        0.01395861
     134         -0.198732        2.000000        0.26141292        0.00833741        0.01490917        0.01707885
     135         -0.198130        2.000000        0.19283392        0.01963321        0.00953698        0.01645700
     136         -0.197415        2.000000        0.10402738        0.02828260        0.00807131        0.01864959
     137         -0.196643        2.000000        0.17782084        0.02036776        0.01102958        0.01707312
     138         -0.194617        2.000000        0.15618339        0.02410122        0.01031669        0.01572639
     139         -0.191396        2.000000        0.01653537        0.03033369        0.00140443        0.01092266
     140         -0.190399        2.000000        0.02571415        0.00220781        0.00178584        0.03864723
     141         -0.186861        2.000000        0.01026729        0.03241369        0.00132366        0.01057762
     142         -0.174952        2.000000        0.00364128        0.00378764        0.00090872        0.03604678
     143         -0.169572        2.000000        0.00288457        0.02706492        0.00097251        0.01441483
     144         -0.167117        2.000000        0.00691186        0.02588944        0.00225094        0.01588369
     145         -0.166124        2.000000        0.00385742        0.03031332        0.00115845        0.01132168
     146         -0.165563        2.000000        0.00710644        0.03176307        0.00129931        0.00910587
     147         -0.163340        2.000000        0.00799680        0.00288660        0.00211460        0.04947994
     148         -0.160399        2.000000        0.00259965        0.01147952        0.00110265        0.03067118
     149         -0.159414        2.000000        0.00891820        0.03862089        0.00320332        0.01269742
     150         -0.156288        2.000000        0.01293257        0.03882832        0.00447404        0.01242679
     151         -0.141640        2.000000        0.00272750        0.00835960        0.00167969        0.04212285
     152         -0.137091        2.000000        0.00252881        0.01304019        0.00135495        0.03003469
     153         -0.136976        2.000000        0.00346248        0.01942185        0.00164573        0.02496561
     154         -0.135731        2.000000        0.00352057        0.01740303        0.00150145        0.03351499
     155         -0.133553        2.000000        0.00227507        0.03965305        0.00119046        0.00093161
     156         -0.133114        2.000000        0.00513429        0.03646150        0.00208074        0.01274410
     157         -0.129358        2.000000        0.00292852        0.02222516        0.00219118        0.02802445
     158         -0.127209        2.000000        0.00419660        0.03739646        0.00200023        0.01492526
     159         -0.099083        2.000000        0.00313125        0.00123663        0.00105513        0.04692671
     160         -0.094530        2.000000        0.00376325        0.04711056        0.00084150        0.00157837
     161         -0.024113        0.000000        0.02829807        0.00176804        0.01957889        0.00160353
     162         -0.018374        0.000000        0.01303496        0.00352178        0.01147892        0.00265729
     163         -0.016347        0.000000        0.00519683        0.01020021        0.01685327        0.00801466
     164         -0.014132        0.000000        0.00516785        0.01081330        0.01608568        0.01243449
     165         -0.011536        0.000000        0.00487015        0.00966069        0.01520505        0.01454458
     166         -0.004142        0.000000        0.01102795        0.02072158        0.01627424        0.01383481
     167         -0.002094        0.000000        0.01374978        0.01836176        0.01402492        0.01489532
     168         -0.000406        0.000000        0.01189835        0.01937274        0.01802331        0.01864040
     169          0.001133        0.000000        0.01502314        0.01040082        0.01687576        0.02717742
     170          0.002686        0.000000        0.01484848        0.01790985        0.01640062        0.02385428
     171          0.003494        0.000000        0.01263236        0.01581688        0.01235388        0.02329065
     172          0.004693        0.000000        0.01419691        0.01120814        0.01997444        0.02394352
     173          0.007361        0.000000        0.01642499        0.02617002        0.02141690        0.01509206
     174          0.009195        0.000000        0.01273149        0.02539331        0.01648023        0.01051412
     175          0.017632        0.000000        0.00950462        0.01883121        0.02226931        0.02838690
     176          0.022912        0.000000        0.01223992        0.03247606        0.02236016        0.02029974
     177          0.023375        0.000000        0.00924732        0.03454329        0.02240341        0.02113817
     178          0.026963        0.000000        0.01061804        0.02014963        0.02405138        0.02968085
     179          0.028865        0.000000        0.01052140        0.02286814        0.02382092        0.03305242
     180          0.032020        0.000000        0.01800790        0.02686051        0.03401998        0.02024196
     181          0.048532        0.000000        0.05967145        0.05470624        0.05858958        0.12783644
     182          0.049023        0.000000        0.03930943        0.06871666        0.04163679        0.06437481
     183          0.053725        0.000000        0.02492061        0.05892220        0.02826144        0.03744574
     184          0.054726        0.000000        0.03543252        0.03614778        0.03263218        0.07977251
     185          0.058078        0.000000        0.07065674        0.12055620        0.06616987        0.08348510
     186          0.061402        0.000000        0.07616176        0.09440104        0.06544663        0.08183973
     187          0.068472        0.000000        0.06528101        0.05932455        0.06182940        0.10713739
     188          0.071075        0.000000        0.07223037        0.07451013        0.06450624        0.07895526
     189          0.072707        0.000000        0.06945049        0.09690936        0.05838250        0.07230276
     190          0.073572        0.000000        0.06834979        0.06880442        0.06265022        0.10478375
     191          0.076080        0.000000        0.05789218        0.06632820        0.05410625        0.09417068
     192          0.077198        0.000000        0.06068529        0.08110093        0.05107492        0.08607420
     193          0.081138        0.000000        0.05576844        0.13533984        0.05817570        0.03395139
     194          0.082601        0.000000        0.06802614        0.07080583        0.06544139        0.10985536
     195          0.083560        0.000000        0.06160013        0.06545120        0.06337348        0.09935795
     196          0.084925        0.000000        0.06014172        0.10033426        0.06741128        0.04071377
     197          0.086013        0.000000        0.04834892        0.12972923        0.07057665        0.05652170
     198          0.087704        0.000000        0.05664540        0.11877966        0.07428146        0.05787878
     199          0.090034        0.000000        0.05096011        0.06047979        0.04216466        0.06175508
     200          0.090763        0.000000        0.06413765        0.06259409        0.04849414        0.06144710
     201          0.094661        0.000000        0.06191844        0.06660253        0.04373272        0.05225944
     202          0.096039        0.000000        0.06518920        0.03873985        0.04006477        0.07523516
     203          0.096939        0.000000        0.06280464        0.04503608        0.04865907        0.07607366
     204          0.098034        0.000000        0.05960761        0.06288798        0.04701668        0.07486183
     205          0.099063        0.000000        0.09136440        0.04843430        0.06439883        0.06000134
     206          0.100832        0.000000        0.08381322        0.06502089        0.04926008        0.04965456
     207          0.101511        0.000000        0.07678849        0.05973110        0.04618491        0.07728597
     208          0.102011        0.000000        0.13052251        0.04840828        0.06905693        0.04198565
     209          0.103399        0.000000        0.06775187        0.06496011        0.05520886        0.06637322
     210          0.104104        0.000000        0.08627382        0.05501955        0.05077316        0.07350902
