# Projected DOS for atomic kind Si at iteration step i = 0, E(Fermi) =    -0.094530 a.u.
#     MO Eigenvalue [a.u.]      Occupation                 s                py                pz                px               d-2               d-1                d0               d+1               d+2
       1         -0.558373        2.000000        0.01330510        0.00033728        0.00158761        0.00018309        0.00002506        0.00004231        0.00013937        0.00002685        0.00002066
       2         -0.543279        2.000000        0.65215741        0.00417410        0.02603426        0.00279938        0.00089092        0.00049938        0.03062536        0.00027214        0.00099998
       3         -0.537797        2.000000        0.00751813        0.00165950        0.00119082        0.00295972        0.00024053        0.00010649        0.00013675        0.00017463        0.00010568
       4         -0.534513        2.000000        0.00596265        0.00295946        0.00106895        0.00079197        0.00005815        0.00017972        0.00013714        0.00006072        0.00025231
       5         -0.530516        2.000000        0.00979831        0.00163567        0.00085569        0.00391192        0.00030104        0.00010640        0.00011629        0.00018830        0.00017318
       6         -0.529060        2.000000        0.02087221        0.00586693        0.00097362        0.00458400        0.00047401        0.00028149        0.00018414        0.00019403        0.00064013
       7         -0.527063        2.000000        0.01697858        0.00745918        0.00085497        0.00140544        0.00016907        0.00025932        0.00020104        0.00008915        0.00058539
       8         -0.523967        2.000000        0.47208469        0.13156351        0.01286098        0.07406339        0.00948088        0.00707156        0.00757605        0.00330193        0.01728569
       9         -0.521687        2.000000        0.04393812        0.00916362        0.00114997        0.01243621        0.00132656        0.00038054        0.00053559        0.00055947        0.00094857
      10         -0.518269        2.000000        0.48710040        0.11565099        0.01009076        0.10422135        0.01310578        0.00503434        0.00823172        0.00549325        0.01408331
      11         -0.517208        2.000000        0.47210341        0.05345538        0.01033721        0.16037000        0.01892545        0.00275832        0.00758116        0.00781643        0.00650653
      12         -0.516871        2.000000        0.50179599        0.08962261        0.01192856        0.13532250        0.01702799        0.00465861        0.00778239        0.00577894        0.01172359
      13         -0.513080        2.000000        0.49603547        0.10195518        0.00917622        0.12579895        0.01534899        0.00453439        0.00664398        0.00584951        0.01407571
      14         -0.510146        2.000000        0.50010270        0.16415374        0.00852009        0.06969619        0.00880937        0.00806127        0.00700489        0.00343950        0.01977440
      15         -0.491332        2.000000        0.00182882        0.00145114        0.00053509        0.00070115        0.00016216        0.00024022        0.00013749        0.00014745        0.00013608
      16         -0.487211        2.000000        0.00355816        0.00085250        0.00053690        0.00278777        0.00025905        0.00017850        0.00017880        0.00029083        0.00033442
      17         -0.485580        2.000000        0.00388083        0.00125788        0.00039318        0.00285166        0.00032588        0.00017618        0.00015167        0.00026235        0.00031900
      18         -0.483292        2.000000        0.00477481        0.00218365        0.00034409        0.00229639        0.00038189        0.00021709        0.00013507        0.00023922        0.00039114
      19         -0.481586        2.000000        0.01964551        0.00951268        0.00054902        0.00731873        0.00166137        0.00063048        0.00029033        0.00056438        0.00157518
      20         -0.481210        2.000000        0.00755732        0.00348433        0.00048592        0.00332100        0.00058620        0.00048996        0.00018212        0.00027446        0.00074021
      21         -0.479383        2.000000        0.00544887        0.00287147        0.00057480        0.00203829        0.00057221        0.00034254        0.00018181        0.00038329        0.00046786
      22         -0.477571        2.000000        0.36005156        0.12436307        0.00177473        0.16676770        0.03328845        0.00818611        0.00078470        0.01180853        0.02884766
      23         -0.475811        2.000000        0.10223968        0.03944789        0.00076147        0.04567255        0.00820281        0.00340073        0.00027678        0.00317545        0.00818563
      24         -0.474521        2.000000        0.30951266        0.13948396        0.00175227        0.11141103        0.02387076        0.01112388        0.00048278        0.00814138        0.02828768
      25         -0.471471        2.000000        0.38601171        0.17233552        0.00140801        0.12833990        0.03239730        0.01390303        0.00093335        0.00999548        0.03813858
      26         -0.470728        2.000000        0.39223531        0.17745316        0.00193585        0.13004089        0.02759184        0.01281972        0.00073879        0.00910947        0.04792162
      27         -0.469260        2.000000        0.07598274        0.02142393        0.00061346        0.03914140        0.00940450        0.00114478        0.00033670        0.00242498        0.00574614
      28         -0.468818        2.000000        0.34970720        0.12590913        0.00116725        0.12767361        0.03877958        0.01054043        0.00135070        0.00907736        0.04213479
      29         -0.468361        2.000000        0.40525356        0.10444560        0.00074682        0.18783704        0.06082135        0.00822494        0.00093345        0.01451019        0.03182143
      30         -0.466251        2.000000        0.40071345        0.16199821        0.00118453        0.14771686        0.04075950        0.01065521        0.00143190        0.01192327        0.03328028
      31         -0.466007        2.000000        0.39327769        0.12962403        0.00155784        0.15588601        0.03723575        0.00899590        0.00071331        0.01273994        0.04965438
      32         -0.463710        2.000000        0.40865470        0.13627107        0.00153797        0.13666557        0.05246297        0.01145572        0.00147380        0.01069401        0.05119689
      33         -0.423724        2.000000        0.00704635        0.00272819        0.00249101        0.00823057        0.00029137        0.00023067        0.00058248        0.00069597        0.00008287
      34         -0.420384        2.000000        0.00980342        0.00445281        0.00361207        0.01075629        0.00025330        0.00053826        0.00103271        0.00087416        0.00015604
      35         -0.418332        2.000000        0.03241973        0.03988741        0.01273975        0.00345603        0.00053970        0.00361713        0.00273672        0.00098806        0.00122714
      36         -0.414066        2.000000        0.02220110        0.00974219        0.00859132        0.01799455        0.00132983        0.00161123        0.00179820        0.00231478        0.00063041
      37         -0.411979        2.000000        0.26360074        0.15707770        0.04535823        0.17556844        0.00819528        0.01894056        0.01430874        0.01635677        0.00978109
      38         -0.410301        2.000000        0.01724510        0.00650161        0.00517930        0.01492939        0.00097490        0.00103668        0.00140143        0.00203279        0.00049716
      39         -0.409077        2.000000        0.16566033        0.12019346        0.03099086        0.09200346        0.00462514        0.01320082        0.00817666        0.01103880        0.00461733
      40         -0.408292        2.000000        0.14625647        0.06204816        0.03018311        0.11463085        0.00597867        0.00860204        0.00812096        0.01343054        0.00548394
      41         -0.407566        2.000000        0.17577215        0.11284928        0.02611713        0.12688166        0.00736182        0.01105352        0.00959160        0.01277481        0.00388244
      42         -0.406274        2.000000        0.06452926        0.06469434        0.01008943        0.02090282        0.00154089        0.00706227        0.00316544        0.00222553        0.00288265
      43         -0.404640        2.000000        0.01544737        0.00793150        0.00745177        0.00651663        0.00130599        0.00166851        0.00133138        0.00127565        0.00124631
      44         -0.402866        2.000000        0.09454570        0.04725872        0.02209965        0.04083980        0.00869172        0.00641155        0.00628677        0.00725923        0.00697284
      45         -0.401821        2.000000        0.19508725        0.07131219        0.04198197        0.11216309        0.02422724        0.00893787        0.01251714        0.01716783        0.00957932
      46         -0.399202        2.000000        0.28039478        0.11270473        0.06736703        0.14797477        0.02830781        0.01685426        0.01837692        0.02381598        0.01944443
      47         -0.398348        2.000000        0.29633029        0.17010877        0.06561779        0.10543384        0.01626114        0.02366654        0.01915677        0.01479040        0.03686510
      48         -0.397612        2.000000        0.27326124        0.15081675        0.07166557        0.10895346        0.01535667        0.02250258        0.01541242        0.01522310        0.03146164
      49         -0.395522        2.000000        0.29319974        0.11907468        0.06556384        0.16005281        0.03288152        0.01407190        0.02134943        0.02138081        0.02102105
      50         -0.393302        2.000000        0.28780994        0.13674141        0.06419268        0.13845207        0.02655590        0.01813756        0.02111885        0.01637042        0.02727011
      51         -0.387382        2.000000        0.06016457        0.01807824        0.08334485        0.02561309        0.00545795        0.00374760        0.00784553        0.00528615        0.00347529
      52         -0.381520        2.000000        0.03441400        0.00548144        0.08934441        0.00522485        0.00156828        0.00396046        0.00640356        0.00364646        0.00170434
      53         -0.379117        2.000000        0.05298213        0.01528225        0.14069368        0.00314231        0.00044891        0.00731723        0.00798063        0.00113279        0.00376926
      54         -0.376181        2.000000        0.04164493        0.00857078        0.07667349        0.01066164        0.00268715        0.00329901        0.00666967        0.00448900        0.00192791
      55         -0.375318        2.000000        0.06857767        0.01078818        0.12922315        0.01383398        0.00459332        0.00384824        0.00923547        0.00872724        0.00286965
      56         -0.372712        2.000000        0.07383270        0.01849881        0.16121135        0.00845180        0.00172185        0.00863825        0.00941428        0.00316013        0.00472768
      57         -0.370156        2.000000        0.06912181        0.00854496        0.14217137        0.01524052        0.00382482        0.00444294        0.00868995        0.00816261        0.00222485
      58         -0.366486        2.000000        0.13906252        0.02751207        0.20091837        0.03183844        0.00842477        0.01065267        0.01461421        0.01198174        0.00600039
      59         -0.364019        2.000000        0.13752711        0.03747928        0.17850866        0.02693643        0.00638798        0.01060779        0.01686189        0.00889656        0.00940730
      60         -0.361724        2.000000        0.12264088        0.02508426        0.16753327        0.03204686        0.00759157        0.00640238        0.01402845        0.01057349        0.00553180
      61         -0.360506        2.000000        0.13780906        0.01966727        0.22952699        0.03518856        0.00851110        0.00787151        0.01450825        0.01339403        0.00495454
      62         -0.358184        2.000000        0.15491088        0.03278985        0.24571104        0.03290436        0.00735813        0.01382438        0.01903410        0.00929109        0.00901620
      63         -0.357600        2.000000        0.16222839        0.04131307        0.23322425        0.02593316        0.00622515        0.01430278        0.01731548        0.01161560        0.01069449
      64         -0.353908        2.000000        0.08660928        0.00437262        0.26980564        0.00774211        0.00138990        0.00138601        0.00756090        0.00215894        0.00079624
      65         -0.280275        2.000000        0.00613723        0.10285237        0.37178687        0.19693616        0.00417176        0.00441360        0.02080808        0.00514019        0.00423739
      66         -0.277600        2.000000        0.00479356        0.09448786        0.37874149        0.17217818        0.00149099        0.00269118        0.01704723        0.00381886        0.00220390
      67         -0.273810        2.000000        0.00614366        0.19990208        0.37587290        0.06134165        0.00345928        0.00360967        0.01882432        0.00252385        0.00210583
      68         -0.271300        2.000000        0.01309015        0.08115195        0.27989081        0.11615374        0.00831619        0.00663153        0.01015328        0.00413554        0.01390415
      69         -0.269704        2.000000        0.00886538        0.05844358        0.19414252        0.05275670        0.00771135        0.00429782        0.01026710        0.00272765        0.00563152
      70         -0.268431        2.000000        0.01264876        0.07525924        0.33728233        0.15007150        0.01247172        0.00405102        0.01714541        0.00470263        0.00809817
      71         -0.266567        2.000000        0.00757208        0.04425596        0.13697417        0.06982109        0.00470853        0.00388524        0.01073821        0.00201164        0.00594031
      72         -0.264413        2.000000        0.01195961        0.08028926        0.26200038        0.12134482        0.00620286        0.00695519        0.01284850        0.00114488        0.01515626
      73         -0.263219        2.000000        0.01090177        0.06823326        0.23806920        0.08868282        0.00895646        0.00333470        0.01139059        0.00376268        0.00805261
      74         -0.262045        2.000000        0.01162631        0.09502300        0.24851527        0.08933946        0.00725869        0.00566683        0.00899357        0.00171336        0.01299855
      75         -0.260476        2.000000        0.00991733        0.07504183        0.23447183        0.14369994        0.00998135        0.00743168        0.02073361        0.00211076        0.00732480
      76         -0.259970        2.000000        0.01791398        0.06744688        0.31306432        0.17512417        0.01663413        0.00447175        0.01449632        0.00341967        0.01320909
      77         -0.258104        2.000000        0.01083587        0.12543333        0.26022833        0.12961452        0.01431584        0.00642253        0.03358866        0.00416344        0.00402963
      78         -0.255239        2.000000        0.00882687        0.07157587        0.22035430        0.03988555        0.00382304        0.00713681        0.03564803        0.00325748        0.00899806
      79         -0.253588        2.000000        0.01324132        0.09464858        0.22154742        0.10478514        0.01094331        0.00746093        0.04517489        0.00367157        0.00776909
      80         -0.253470        2.000000        0.00939651        0.08809780        0.19042754        0.12876333        0.00711031        0.01088716        0.04988506        0.00191795        0.00457110
      81         -0.252730        2.000000        0.01156308        0.05849551        0.17622646        0.09004493        0.00746906        0.00619266        0.02370105        0.00288569        0.00782890
      82         -0.252548        2.000000        0.01334818        0.23007221        0.17772752        0.10731782        0.00900354        0.00696077        0.02727808        0.00837448        0.01208166
      83         -0.251799        2.000000        0.00792810        0.18613374        0.25770874        0.12311513        0.00902816        0.00586813        0.04872184        0.01187671        0.00698101
      84         -0.251248        2.000000        0.01304199        0.10042352        0.12859081        0.08335059        0.00981304        0.00266643        0.02355980        0.00348829        0.00628660
      85         -0.249637        2.000000        0.01099935        0.03301611        0.08018651        0.05019145        0.00721183        0.00129951        0.01705334        0.00183911        0.00391655
      86         -0.249276        2.000000        0.01478351        0.06506455        0.15715055        0.12746656        0.01044898        0.00422457        0.03636903        0.00403567        0.00718462
      87         -0.248935        2.000000        0.01402399        0.05462633        0.18420817        0.08278814        0.01109565        0.00401927        0.04437568        0.00602584        0.00488960
      88         -0.247686        2.000000        0.00625529        0.12026284        0.22603923        0.08515647        0.00723932        0.00362581        0.04477481        0.01156975        0.00403601
      89         -0.246595        2.000000        0.02024476        0.15343703        0.14182097        0.13924614        0.01476738        0.00441204        0.02542785        0.00664824        0.01096043
      90         -0.246052        2.000000        0.01428780        0.09752008        0.18324112        0.11605462        0.01039143        0.00532662        0.03220033        0.00454170        0.00959563
      91         -0.245633        2.000000        0.01066050        0.06844718        0.13822901        0.06008763        0.00651147        0.00392807        0.02893404        0.00311429        0.00504050
      92         -0.244379        2.000000        0.02550070        0.17790636        0.18698949        0.08810036        0.00686072        0.00802043        0.04436138        0.00332452        0.02289896
      93         -0.244216        2.000000        0.01138102        0.09532226        0.25229679        0.05570044        0.00788556        0.00565665        0.05880448        0.00599178        0.01085759
      94         -0.242837        2.000000        0.01452893        0.14911057        0.20921834        0.11939728        0.01118436        0.00618938        0.03179116        0.01358025        0.01438184
      95         -0.242489        2.000000        0.01927985        0.08516710        0.18493524        0.11837284        0.01558753        0.00253240        0.04276326        0.00420411        0.01036794
      96         -0.241849        2.000000        0.02074091        0.12910111        0.13558807        0.10019950        0.01328023        0.00397415        0.01734130        0.00386221        0.01649923
      97         -0.241435        2.000000        0.01354980        0.06113815        0.14726589        0.07501832        0.01058125        0.00386226        0.03127289        0.00224147        0.00805531
      98         -0.240705        2.000000        0.00910844        0.08532198        0.11370965        0.02267663        0.00400000        0.00161607        0.02717692        0.00282330        0.00940445
      99         -0.240199        2.000000        0.02094852        0.17933377        0.17027561        0.20719096        0.02253623        0.00917448        0.03179673        0.00556344        0.01617304
     100         -0.238725        2.000000        0.01733592        0.10326628        0.13866035        0.12935910        0.01156916        0.00444363        0.03048953        0.00283179        0.01529089
     101         -0.238015        2.000000        0.01893850        0.08081129        0.15187007        0.07135990        0.00863961        0.00454295        0.02763069        0.00410612        0.01485663
     102         -0.236821        2.000000        0.01067916        0.06826902        0.19225879        0.06082784        0.00854276        0.00357595        0.05954207        0.00541923        0.00674252
     103         -0.236432        2.000000        0.01539103        0.07934118        0.15692582        0.07619920        0.00987502        0.00407429        0.04042968        0.00341988        0.01143246
     104         -0.235682        2.000000        0.01076912        0.06349763        0.14209208        0.09776063        0.00779825        0.00367499        0.03169549        0.00330012        0.01077618
     105         -0.234339        2.000000        0.01442988        0.07530929        0.16258493        0.10692646        0.01456299        0.00401400        0.03635036        0.00439837        0.01086772
     106         -0.233115        2.000000        0.01834288        0.08616140        0.13665726        0.06640354        0.00855548        0.00397873        0.03278556        0.00277044        0.01673352
     107         -0.231779        2.000000        0.00952851        0.14875225        0.15510754        0.13825389        0.01188139        0.00965180        0.02500830        0.00693053        0.01518056
     108         -0.231359        2.000000        0.01163455        0.07980016        0.15416647        0.08058706        0.00563053        0.00620941        0.03623425        0.00209491        0.01289936
     109         -0.230655        2.000000        0.01109948        0.06212176        0.15789902        0.09867125        0.01391989        0.00638960        0.03683105        0.00351946        0.00858093
     110         -0.230487        2.000000        0.00987566        0.09118629        0.14429951        0.05603347        0.00610536        0.00566395        0.04353232        0.00378929        0.00924722
     111         -0.229590        2.000000        0.01123807        0.07528754        0.15201280        0.08281381        0.00997010        0.00662555        0.02974135        0.00453898        0.01156044
     112         -0.228327        2.000000        0.00521424        0.06229800        0.09230558        0.03728514        0.00845247        0.00274850        0.01532349        0.00438835        0.00428531
     113         -0.227432        2.000000        0.00448312        0.07486444        0.11773399        0.13754528        0.00804252        0.00759727        0.01988978        0.00627698        0.01234268
     114         -0.226611        2.000000        0.00919074        0.08263645        0.13105980        0.07236319        0.01177333        0.00651284        0.02756009        0.00485478        0.00697086
     115         -0.225915        2.000000        0.00638074        0.04866818        0.07833165        0.06227344        0.00530896        0.00404369        0.01878251        0.00259478        0.00833480
     116         -0.224723        2.000000        0.00751475        0.07502375        0.09433371        0.09777499        0.01103890        0.00467247        0.01349780        0.00584686        0.00835069
     117         -0.224060        2.000000        0.00609475        0.06992980        0.15211221        0.08281083        0.00660676        0.00650855        0.04409749        0.00577467        0.00809302
     118         -0.222599        2.000000        0.00615523        0.05829963        0.09388148        0.05389637        0.00572234        0.00442845        0.02276103        0.00299015        0.00926000
     119         -0.221911        2.000000        0.00701160        0.09341240        0.13586246        0.09642885        0.01284513        0.00780886        0.02467062        0.00685321        0.00834877
     120         -0.220994        2.000000        0.00927367        0.14346415        0.11963854        0.04940468        0.01841409        0.00378717        0.02195641        0.00862130        0.00624709
     121         -0.220018        2.000000        0.00545720        0.09043824        0.12075205        0.04230308        0.01342749        0.00402950        0.02125390        0.00697145        0.00395212
     122         -0.219910        2.000000        0.01138508        0.11444865        0.16031440        0.12217355        0.01381697        0.00914554        0.03393838        0.00674509        0.01519267
     123         -0.219381        2.000000        0.00247931        0.04480404        0.06647951        0.04061544        0.00425206        0.00304735        0.01266541        0.00410044        0.00387379
     124         -0.217598        2.000000        0.00353626        0.06037710        0.07662037        0.04263517        0.00830987        0.00389069        0.01355694        0.00451388        0.00384901
     125         -0.216443        2.000000        0.00554612        0.02944138        0.10419596        0.03139644        0.00434593        0.00305678        0.02758216        0.00181236        0.00612911
     126         -0.213695        2.000000        0.00323930        0.06002918        0.08032156        0.01560500        0.00606265        0.00344459        0.02137809        0.00327513        0.00214890
     127         -0.212849        2.000000        0.00373377        0.02242433        0.09279918        0.02948117        0.00457764        0.00300567        0.02476057        0.00220813        0.00395453
     128         -0.212112        2.000000        0.00300374        0.02405362        0.05840152        0.01729377        0.00294628        0.00224491        0.01186877        0.00155388        0.00397778
     129         -0.208853        2.000000        0.00183544        0.01809660        0.05980778        0.02197927        0.00334742        0.00189958        0.01361483        0.00212562        0.00270395
     130         -0.208062        2.000000        0.00438203        0.01069611        0.09637154        0.03612419        0.00624892        0.00267974        0.02459979        0.00305672        0.00245963
     131         -0.205264        2.000000        0.00108202        0.02453852        0.03732513        0.01099828        0.00211419        0.00141906        0.00855880        0.00200069        0.00137007
     132         -0.204124        2.000000        0.00355400        0.02059468        0.08949121        0.01766138        0.00222428        0.00337168        0.02687842        0.00178073        0.00358880
     133         -0.200911        2.000000        0.00171620        0.01184792        0.05792617        0.01274192        0.00200316        0.00180160        0.01791030        0.00194515        0.00111247
     134         -0.198732        2.000000        0.00131518        0.01295154        0.04813611        0.01845696        0.00173380        0.00155974        0.01398599        0.00146511        0.00093346
     135         -0.198130        2.000000        0.00093179        0.01737709        0.02209947        0.01584696        0.00111413        0.00095993        0.00432436        0.00124079        0.00119547
     136         -0.197415        2.000000        0.00019784        0.00685128        0.01334181        0.00413303        0.00058245        0.00087078        0.00150890        0.00068137        0.00071172
     137         -0.196643        2.000000        0.00094400        0.01666825        0.02483052        0.02442398        0.00146913        0.00083926        0.00478566        0.00154677        0.00118255
     138         -0.194617        2.000000        0.00046103        0.02051009        0.01817151        0.01352089        0.00083236        0.00111356        0.00362911        0.00088707        0.00088287
     139         -0.191396        2.000000        0.00186315        0.61656332        0.02643408        0.21606711        0.00582028        0.01993227        0.00281676        0.00897834        0.01115766
     140         -0.190399        2.000000        0.00175156        0.02744790        0.02575882        0.79187906        0.01417261        0.00192168        0.00533828        0.02738628        0.00372639
     141         -0.186861        2.000000        0.00217297        0.62956756        0.02046676        0.23410923        0.00531732        0.01977671        0.00362885        0.01196304        0.01052695
     142         -0.174952        2.000000        0.00173717        0.07168964        0.01142802        0.75934085        0.07164458        0.00294879        0.00226666        0.02387359        0.00837091
     143         -0.169572        2.000000        0.00109517        0.53063234        0.01215473        0.30086329        0.02956228        0.01377618        0.00152411        0.00940806        0.05326782
     144         -0.167117        2.000000        0.00112568        0.48634727        0.02436606        0.31939453        0.02909095        0.01579359        0.00355130        0.01188969        0.05077940