# Projected DOS for atomic kind Si at iteration step i = 0, E(Fermi) =    -0.094233 a.u.
#     MO Eigenvalue [a.u.]      Occupation                 s                py                pz                px               d-2               d-1                d0               d+1               d+2
       1         -0.558147        2.000000        0.01445393        0.00034257        0.00158349        0.00017845        0.00002569        0.00004336        0.00015095        0.00002728        0.00002221
       2         -0.543805        2.000000        0.65106364        0.00421454        0.02589818        0.00260171        0.00086349        0.00050975        0.03073360        0.00027106        0.00107951
       3         -0.537612        2.000000        0.00837199        0.00180001        0.00119625        0.00321112        0.00026233        0.00011321        0.00013396        0.00018687        0.00011701
       4         -0.534378        2.000000        0.00630398        0.00322675        0.00104537        0.00072749        0.00005355        0.00018782        0.00012553        0.00005821        0.00028605
       5         -0.530427        2.000000        0.00952637        0.00154765        0.00085407        0.00385922        0.00029626        0.00009716        0.00012545        0.00017907        0.00016106
       6         -0.529104        2.000000        0.02726471        0.00762963        0.00103847        0.00602031        0.00063104        0.00038788        0.00019861        0.00024659        0.00087625
       7         -0.526948        2.000000        0.03148887        0.01236773        0.00110824        0.00300865        0.00037588        0.00040852        0.00038367        0.00017031        0.00109281
       8         -0.524713        2.000000        0.45633624        0.12994842        0.01247594        0.06887155        0.00880922        0.00706446        0.00745053        0.00310179        0.01735726
       9         -0.521606        2.000000        0.05212670        0.00960771        0.00115952        0.01609495        0.00172052        0.00038226        0.00056454        0.00069409        0.00097786
      10         -0.518714        2.000000        0.48474951        0.10481661        0.01052635        0.11404680        0.01416588        0.00439066        0.00815280        0.00619168        0.01294065
      11         -0.517802        2.000000        0.47540979        0.07215535        0.01114271        0.14321881        0.01794616        0.00408150        0.00699442        0.00607458        0.00960193
      12         -0.517591        2.000000        0.48510585        0.07380350        0.01017820        0.14401411        0.01729827        0.00358154        0.00847592        0.00680811        0.00892821
      13         -0.513456        2.000000        0.49493377        0.10081420        0.00905311        0.12704260        0.01543253        0.00444164        0.00662493        0.00584371        0.01404471
      14         -0.510529        2.000000        0.49985640        0.16877376        0.00857380        0.06549956        0.00834910        0.00824166        0.00710968        0.00325248        0.02031876
      15         -0.491247        2.000000        0.00195068        0.00152822        0.00055634        0.00075255        0.00017225        0.00024943        0.00014450        0.00015367        0.00014471
      16         -0.487331        2.000000        0.00400104        0.00092224        0.00054629        0.00311318        0.00029465        0.00019308        0.00018209        0.00031317        0.00037480
      17         -0.485001        2.000000        0.00508911        0.00159436        0.00039673        0.00361624        0.00043351        0.00019335        0.00016283        0.00029611        0.00041205
      18         -0.483305        2.000000        0.00573501        0.00247705        0.00034263        0.00284881        0.00045585        0.00024229        0.00013493        0.00027335        0.00047301
      19         -0.481472        2.000000        0.02433275        0.01148715        0.00055302        0.00918187        0.00207815        0.00073955        0.00029654        0.00067539        0.00198459
      20         -0.481196        2.000000        0.01290814        0.00598665        0.00049949        0.00518849        0.00101983        0.00066222        0.00020674        0.00038352        0.00122752
      21         -0.478928        2.000000        0.00987828        0.00423090        0.00058912        0.00419636        0.00101379        0.00044956        0.00019348        0.00060114        0.00085762
      22         -0.478121        2.000000        0.35245472        0.12022661        0.00182025        0.16454020        0.03264507        0.00787745        0.00076308        0.01161130        0.02838926
      23         -0.476163        2.000000        0.12841988        0.04972111        0.00087153        0.05768891        0.01031618        0.00414739        0.00030280        0.00390844        0.01039285
      24         -0.475037        2.000000        0.27576750        0.12341281        0.00167482        0.09960941        0.02143865        0.00988413        0.00038420        0.00711892        0.02559183
      25         -0.472108        2.000000        0.38607510        0.17221205        0.00146192        0.12689257        0.03315383        0.01407619        0.00085473        0.00996085        0.03870094
      26         -0.471076        2.000000        0.39471971        0.17134717        0.00170809        0.14210344        0.03082182        0.01187675        0.00075490        0.01004048        0.04346636
      27         -0.469284        2.000000        0.37158415        0.09412981        0.00135543        0.17603520        0.05671965        0.00632372        0.00113839        0.01329725        0.03393934
      28         -0.468721        2.000000        0.06850560        0.02807783        0.00056362        0.01864002        0.00617657        0.00258988        0.00036719        0.00212961        0.01137907
      29         -0.468599        2.000000        0.40709229        0.13218834        0.00084401        0.15986147        0.04981034        0.01160607        0.00121444        0.01079159        0.04132400
      30         -0.466927        2.000000        0.38792444        0.14435289        0.00120642        0.14825445        0.03816890        0.00959647        0.00095659        0.01184091        0.03880957
      31         -0.466676        2.000000        0.38345773        0.15806062        0.00113125        0.13813122        0.03194538        0.01024307        0.00115726        0.01078767        0.04140126
      32         -0.463736        2.000000        0.40805298        0.13469917        0.00170684        0.13837957        0.05267217        0.01118261        0.00146181        0.01090846        0.05060901
      33         -0.423540        2.000000        0.00730402        0.00289500        0.00262093        0.00848770        0.00030094        0.00025290        0.00060171        0.00069323        0.00010252
      34         -0.420135        2.000000        0.01130483        0.00512050        0.00386868        0.01225160        0.00029496        0.00057521        0.00114269        0.00099689        0.00017649
      35         -0.418019        2.000000        0.03679523        0.04574655        0.01329475        0.00414216        0.00054057        0.00405908        0.00296530        0.00104681        0.00131806
      36         -0.414523        2.000000        0.02461615        0.00943160        0.00916979        0.02054593        0.00145283        0.00166187        0.00191608        0.00268775        0.00074686
      37         -0.412183        2.000000        0.25270014        0.15665239        0.04358451        0.16435971        0.00758267        0.01853855        0.01402520        0.01502125        0.00996817
      38         -0.410239        2.000000        0.01225750        0.00469987        0.00438653        0.00946745        0.00081664        0.00095614        0.00113067        0.00148880        0.00054478
      39         -0.409310        2.000000        0.15760899        0.11009666        0.02946233        0.09050776        0.00474724        0.01237514        0.00768572        0.01083417        0.00458991
      40         -0.408502        2.000000        0.20570713        0.07880420        0.03571694        0.18783900        0.00819195        0.01005227        0.01045637        0.01969086        0.00506700
      41         -0.407809        2.000000        0.15180316        0.12300758        0.02363282        0.07945714        0.00606598        0.01166455        0.00875697        0.00883069        0.00486294
      42         -0.406316        2.000000        0.05116531        0.05340845        0.00864061        0.01311356        0.00139027        0.00596793        0.00252714        0.00171917        0.00242558
      43         -0.403812        2.000000        0.02406592        0.01261812        0.00906955        0.01081863        0.00132371        0.00254537        0.00192818        0.00170234        0.00235055
      44         -0.402843        2.000000        0.17657371        0.07856232        0.03791275        0.08877559        0.01813030        0.00983799        0.01158356        0.01430976        0.01150815
      45         -0.401645        2.000000        0.09768444        0.03709844        0.02148305        0.05903594        0.01165370        0.00445502        0.00645426        0.00858213        0.00502687
      46         -0.399724        2.000000        0.28424122        0.10971921        0.07165265        0.14932423        0.03060066        0.01672824        0.01859336        0.02407597        0.01917569
      47         -0.398883        2.000000        0.29627092        0.16785270        0.06519815        0.10574439        0.01636408        0.02382380        0.01871323        0.01494976        0.03745826
      48         -0.397287        2.000000        0.27297745        0.15268177        0.06916481        0.10954803        0.01608943        0.02213294        0.01566495        0.01516323        0.03134508
      49         -0.396035        2.000000        0.29230976        0.11882807        0.06335578        0.15895435        0.03340350        0.01419848        0.02131118        0.02089502        0.02138612
      50         -0.394200        2.000000        0.28878810        0.13373243        0.06534195        0.14128516        0.02737043        0.01806475        0.02081643        0.01722705        0.02591730
      51         -0.386922        2.000000        0.05623079        0.01601913        0.08637332        0.02288394        0.00486587        0.00357248        0.00788912        0.00529526        0.00322871
      52         -0.380969        2.000000        0.03679478        0.00603986        0.09520642        0.00484884        0.00154755        0.00456730        0.00662883        0.00359225        0.00196668
      53         -0.379645        2.000000        0.05333769        0.01464594        0.14816866        0.00311354        0.00044122        0.00699124        0.00799593        0.00088591        0.00369141
      54         -0.375805        2.000000        0.06369427        0.01296476        0.10773435        0.01520664        0.00445495        0.00420678        0.00958952        0.00692878        0.00322560
      55         -0.375093        2.000000        0.05694371        0.00913519        0.11118139        0.01134445        0.00329862        0.00446569        0.00767283        0.00675401        0.00235994
      56         -0.372389        2.000000        0.06187187        0.01660294        0.14019723        0.00618338        0.00133940        0.00710668        0.00828509        0.00267708        0.00409474
      57         -0.370876        2.000000        0.08489518        0.01132744        0.16888424        0.01888264        0.00474832        0.00556759        0.01028752        0.00947600        0.00275831
      58         -0.366293        2.000000        0.13390727        0.02742694        0.19295009        0.03087160        0.00797537        0.01041145        0.01450000        0.01127290        0.00608012
      59         -0.363961        2.000000        0.12787627        0.03161874        0.16714440        0.02725466        0.00669724        0.00893973        0.01558605        0.00936857        0.00801130
      60         -0.361792        2.000000        0.12276409        0.03097624        0.16882120        0.02449834        0.00583080        0.00891239        0.01329817        0.00805838        0.00717418
      61         -0.360505        2.000000        0.14950964        0.02153305        0.25440506        0.03753763        0.00969204        0.00888427        0.01596825        0.01442401        0.00545951
      62         -0.359305        2.000000        0.13506428        0.02199438        0.19815153        0.03938153        0.00841653        0.00761372        0.01711629        0.01179556        0.00552894
      63         -0.357558        2.000000        0.16256602        0.04677422        0.24286190        0.01971442        0.00495986        0.01715434        0.01819424        0.00875351        0.01249205
      64         -0.353978        2.000000        0.08824161        0.00559197        0.26781817        0.00803747        0.00160807        0.00152534        0.00790504        0.00274733        0.00097619
      65         -0.280839        2.000000        0.00632126        0.10169334        0.37349011        0.19759876        0.00434693        0.00444700        0.02170006        0.00559267        0.00437378
      66         -0.277881        2.000000        0.00437793        0.09209787        0.38245528        0.17418671        0.00137469        0.00268939        0.01755730        0.00393215        0.00172838
      67         -0.274099        2.000000        0.00672947        0.18938507        0.37635030        0.06997846        0.00400344        0.00350987        0.01944895        0.00295734        0.00252983
      68         -0.271664        2.000000        0.01288270        0.08204868        0.29550622        0.12037925        0.00888379        0.00653492        0.01094009        0.00456060        0.01360284
      69         -0.269572        2.000000        0.00880244        0.06714835        0.20013541        0.05041869        0.00760418        0.00404434        0.00973842        0.00272707        0.00540009
      70         -0.268635        2.000000        0.01333794        0.07854380        0.33211381        0.14566703        0.01239160        0.00470929        0.01658808        0.00442251        0.00839181
      71         -0.266636        2.000000        0.00901141        0.05780682        0.18245951        0.09466409        0.00534796        0.00564556        0.01487169        0.00198031        0.00852868
      72         -0.264684        2.000000        0.00960598        0.06682155        0.22193144        0.09537037        0.00533298        0.00521385        0.01121676        0.00123556        0.01172070
      73         -0.263196        2.000000        0.01168879        0.06252064        0.23972458        0.09614399        0.00838721        0.00408652        0.01286424        0.00378303        0.00919267
      74         -0.262509        2.000000        0.01113260        0.09376450        0.23983739        0.09173351        0.00714838        0.00599115        0.00929836        0.00126654        0.01269944
      75         -0.260924        2.000000        0.01193787        0.07843155        0.24911380        0.14319941        0.01242070        0.00733414        0.01822828        0.00274229        0.00732345
      76         -0.260194        2.000000        0.01706512        0.06444853        0.30945241        0.17467650        0.01507072        0.00450904        0.01437811        0.00335150        0.01365822
      77         -0.258104        2.000000        0.01015683        0.13409942        0.26081360        0.12879975        0.01421144        0.00701659        0.03380775        0.00472010        0.00432233
      78         -0.255607        2.000000        0.00968458        0.07858248        0.24762047        0.05101682        0.00413861        0.00803437        0.04253744        0.00339539        0.01004560
      79         -0.254193        2.000000        0.01853761        0.09648848        0.20826438        0.11983169        0.01439723        0.00599157        0.03989275        0.00336570        0.00836684
      80         -0.253547        2.000000        0.00730600        0.07174053        0.16490250        0.11493890        0.00566759        0.00914395        0.04247702        0.00177232        0.00380318
      81         -0.252886        2.000000        0.00982156        0.21525369        0.17801170        0.09874615        0.00635844        0.00685593        0.03202396        0.00942160        0.00982705
      82         -0.252373        2.000000        0.01654993        0.11668905        0.19161221        0.10750685        0.01054912        0.00885204        0.02717287        0.00227209        0.01178563
      83         -0.251554        2.000000        0.00860646        0.18649227        0.24248916        0.12475937        0.00896186        0.00510984        0.04768607        0.01208065        0.00802655
      84         -0.251029        2.000000        0.01197662        0.09097602        0.10896712        0.09893769        0.01040024        0.00275982        0.01961806        0.00345244        0.00480976
      85         -0.249540        2.000000        0.01747115        0.07196510        0.13959098        0.13068713        0.01323096        0.00275043        0.02831233        0.00358968        0.00725435
      86         -0.249137        2.000000        0.02029428        0.06319878        0.15577217        0.10820552        0.01443448        0.00271352        0.03162193        0.00476740        0.00706943
      87         -0.248820        2.000000        0.00719235        0.04173812        0.13449947        0.03843373        0.00402491        0.00462220        0.03419388        0.00355237        0.00430458
      88         -0.247773        2.000000        0.00574278        0.13006398        0.24784526        0.07913128        0.00739490        0.00389670        0.04975745        0.01158604        0.00437144
      89         -0.246422        2.000000        0.02297791        0.17536877        0.13923842        0.12993089        0.01472716        0.00380502        0.02401297        0.00640793        0.01403159
      90         -0.246304        2.000000        0.01137341        0.08222828        0.17527283        0.12028176        0.00878012        0.00563154        0.03018313        0.00535021        0.00820239
      91         -0.245417        2.000000        0.00604909        0.04054067        0.12378067        0.05069174        0.00435478        0.00399816        0.02875127        0.00281424        0.00264697
      92         -0.244560        2.000000        0.00859998        0.10749922        0.20573782        0.07348006        0.00954495        0.00414029        0.04472302        0.00648215        0.00642846
      93         -0.244401        2.000000        0.03025122        0.19606188        0.19219187        0.11509008        0.00983380        0.00820619        0.03124092        0.00421848        0.02662975
      94         -0.243054        2.000000        0.01041031        0.10407629        0.25170786        0.10292689        0.01160749        0.00686224        0.04496886        0.01384016        0.01098775
      95         -0.242417        2.000000        0.01654434        0.07992333        0.17738787        0.08921780        0.01187054        0.00212436        0.05043596        0.00352027        0.01100678
      96         -0.241973        2.000000        0.02710974        0.18303417        0.19454657        0.08702489        0.01142702        0.00627530        0.03463863        0.00402358        0.02442273
      97         -0.241488        2.000000        0.01452646        0.09330699        0.10279573        0.09698999        0.01151859        0.00245640        0.02062678        0.00252691        0.01155033
      98         -0.240726        2.000000        0.00652252        0.04305070        0.18668635        0.04952129        0.00513851        0.00463907        0.04922753        0.00342589        0.00619019
      99         -0.240505        2.000000        0.02520463        0.18694686        0.13180653        0.19046265        0.02328553        0.00658437        0.01827318        0.00461007        0.01739692
     100         -0.238813        2.000000        0.01294607        0.06753173        0.11978708        0.10403896        0.00996114        0.00323597        0.02688493        0.00249530        0.01025367
     101         -0.238126        2.000000        0.01770020        0.07763320        0.16684420        0.07116657        0.00843122        0.00483659        0.03570465        0.00432511        0.01399568
     102         -0.237029        2.000000        0.00874829        0.06459318        0.15783980        0.05313798        0.00646168        0.00328575        0.04972279        0.00450104        0.00679216
     103         -0.236126        2.000000        0.01344202        0.07208866        0.17864126        0.08029113        0.01110290        0.00452230        0.04822120        0.00468337        0.00804869
     104         -0.235866        2.000000        0.01089039        0.07121992        0.12370286        0.08669600        0.00653543        0.00309110        0.02514761        0.00278735        0.01180674
     105         -0.234475        2.000000        0.01760198        0.08874594        0.17349594        0.10934646        0.01556423        0.00381584        0.03982023        0.00461417        0.01332717
     106         -0.233186        2.000000        0.01508079        0.06934578        0.14245092        0.06256092        0.00836619        0.00483471        0.03511870        0.00289789        0.01315500
     107         -0.232024        2.000000        0.00800383        0.15454339        0.14536359        0.15202207        0.01297825        0.00996114        0.02455387        0.00707486        0.01384027
     108         -0.231431        2.000000        0.01442264        0.10074667        0.15425737        0.09116050        0.00711517        0.00643581        0.03315589        0.00273175        0.01600196
     109         -0.230605        2.000000        0.01227943        0.05926045        0.18089239        0.07420422        0.01369254        0.00709040        0.05111026        0.00376001        0.00603591
     110         -0.230328        2.000000        0.00983751        0.09119647        0.17935672        0.08031841        0.00546086        0.00662776        0.03563081        0.00413279        0.01562245
     111         -0.229493        2.000000        0.00912261        0.04834745        0.10295555        0.05608419        0.00697071        0.00398646        0.02510669        0.00372059        0.00760600
     112         -0.228596        2.000000        0.00591587        0.07950894        0.10402417        0.07376174        0.01018964        0.00359086        0.01781804        0.00563144        0.00708141
     113         -0.227188        2.000000        0.00419017        0.07534722        0.07245768        0.11061529        0.00739686        0.00576813        0.01237289        0.00540522        0.01028740
     114         -0.226387        2.000000        0.00939008        0.07055842        0.17638153        0.07246530        0.01146505        0.00794317        0.04016003        0.00543480        0.00606313
     115         -0.225750        2.000000        0.00718157        0.04862991        0.07223126        0.07477841        0.00632968        0.00407906        0.01333047        0.00196470        0.00902904
     116         -0.224636        2.000000        0.00647011        0.06406308        0.08652485        0.08502444        0.00991203        0.00419290        0.00965265        0.00538154        0.00697086
     117         -0.223929        2.000000        0.00631073        0.08802262        0.13793312        0.08516109        0.00771784        0.00554162        0.04220979        0.00620313        0.00948168
     118         -0.222594        2.000000        0.00414377        0.04640196        0.09762911        0.06659340        0.00534687        0.00604160        0.02164952        0.00308910        0.00823972
     119         -0.222043        2.000000        0.00931911        0.09670470        0.12766666        0.07558443        0.01347200        0.00585877        0.02389532        0.00657451        0.00815100
     120         -0.220867        2.000000        0.00997329        0.12834720        0.12470780        0.05008739        0.01728349        0.00332081        0.02286522        0.00829897        0.00688349
     121         -0.220483        2.000000        0.00448601        0.09672061        0.11353409        0.06095453        0.01289009        0.00534983        0.01904609        0.00706115        0.00535686
     122         -0.219858        2.000000        0.00965766        0.10858843        0.14177454        0.08794902        0.01334746        0.00746389        0.03227886        0.00666201        0.01111990
     123         -0.219361        2.000000        0.00338498        0.05151953        0.09300786        0.04238850        0.00564764        0.00336941        0.01860041        0.00487221        0.00436412
     124         -0.217615        2.000000        0.00290877        0.04357753        0.06297292        0.03427856        0.00676713        0.00294970        0.01121437        0.00332485        0.00274946
     125         -0.216245        2.000000        0.00555933        0.03174266        0.10725410        0.03073719        0.00422294        0.00295394        0.02841922        0.00202414        0.00643549
     126         -0.213666        2.000000        0.00164274        0.03451879        0.06363598        0.01168131        0.00273793        0.00288348        0.01519633        0.00159974        0.00238142
     127         -0.213111        2.000000        0.00453969        0.03942867        0.10233950        0.03046506        0.00657388        0.00326915        0.02919154        0.00334003        0.00354674
     128         -0.212035        2.000000        0.00278288        0.02174851        0.05456641        0.01797159        0.00283441        0.00221075        0.01128272        0.00149196        0.00354836
     129         -0.208772        2.000000        0.00181701        0.01802114        0.06077809        0.01991212        0.00312294        0.00189942        0.01388494        0.00208914        0.00265506
     130         -0.207910        2.000000        0.00448443        0.01361930        0.09698107        0.03538620        0.00653270        0.00263424        0.02454049        0.00336637        0.00245992
     131         -0.205287        2.000000        0.00129386        0.02360865        0.04151683        0.01219997        0.00234575        0.00151379        0.01021946        0.00215953        0.00137780
     132         -0.204323        2.000000        0.00316194        0.02226517        0.08101182        0.01662978        0.00177757        0.00322030        0.02408145        0.00149371        0.00355449
     133         -0.200859        2.000000        0.00149864        0.01270165        0.05294498        0.01371011        0.00195996        0.00172548        0.01586874        0.00191006        0.00102376
     134         -0.199155        2.000000        0.00104565        0.01600517        0.04282677        0.02436738        0.00195500        0.00149852        0.01114677        0.00162217        0.00109984
     135         -0.198398        2.000000        0.00165047        0.01691294        0.03563104        0.01024088        0.00110527        0.00112930        0.01049342        0.00130306        0.00126339
     136         -0.197395        2.000000        0.00068620        0.00927654        0.02257702        0.01164263        0.00092010        0.00097019        0.00435929        0.00086593        0.00116139
     137         -0.196294        2.000000        0.00038549        0.01331507        0.01523402        0.02193076        0.00119133        0.00062758        0.00212718        0.00144227        0.00072232
     138         -0.194560        2.000000        0.00048021        0.02175026        0.01762065        0.01304553        0.00083982        0.00113188        0.00348914        0.00087640        0.00086760
     139         -0.191931        2.000000        0.00172135        0.61292425        0.02777720        0.20955347        0.00510915        0.01999191        0.00310124        0.00878824        0.01146904
     140         -0.190836        2.000000        0.00186014        0.02747719        0.02535831        0.79213347        0.01500614        0.00180293        0.00532599        0.02701018        0.00350995
     141         -0.187275        2.000000        0.00217698        0.62645759        0.02131975        0.23475921        0.00551592        0.01956579        0.00404333        0.01202900        0.01057729
     142         -0.175525        2.000000        0.00180018        0.07157078        0.01257814        0.75639894        0.07141754        0.00304090        0.00264741        0.02377569        0.00837722
     143         -0.169935        2.000000        0.00102710        0.52923131        0.01175825        0.30204644        0.02996661        0.01373454        0.00156561        0.00942840        0.05296008
     144         -0.167633        2.000000        0.00113964        0.51659478        0.02484319        0.28857671        0.02662219        0.01629958        0.00379247        0.01099111        0.05405381