# Projected DOS for atomic kind Ge at iteration step i = 0, E(Fermi) =    -0.093794 a.u.
#     MO Eigenvalue [a.u.]      Occupation                 s                py                pz                px               d-2               d-1                d0               d+1               d+2
       1         -0.557891        2.000000        0.75062919        0.00456878        0.01986086        0.00389529        0.00058748        0.00045495        0.00756174        0.00055426        0.00080157
       2         -0.545227        2.000000        0.01406795        0.00013171        0.00320141        0.00021947        0.00003077        0.00001401        0.00070051        0.00004386        0.00002973
       3         -0.536785        2.000000        0.64958936        0.04386702        0.01209464        0.06923959        0.00658427        0.00238425        0.00284303        0.00405988        0.00453280
       4         -0.534981        2.000000        0.65456602        0.07259396        0.01376312        0.04070173        0.00397271        0.00372900        0.00250157        0.00220717        0.00748117
       5         -0.530564        2.000000        0.64969360        0.03470188        0.00898271        0.08003989        0.00811366        0.00194119        0.00312440        0.00457883        0.00378386
       6         -0.528873        2.000000        0.54460816        0.03719030        0.00715872        0.05818288        0.00574238        0.00193259        0.00228310        0.00326881        0.00370910
       7         -0.527100        2.000000        0.48482785        0.07510226        0.00662348        0.01047283        0.00167129        0.00380869        0.00238900        0.00072208        0.00756277
       8         -0.526204        2.000000        0.26299898        0.03814117        0.00496541        0.00707375        0.00089808        0.00213123        0.00152710        0.00064505        0.00449444
       9         -0.522045        2.000000        0.39783819        0.02458897        0.00440828        0.04930861        0.00472469        0.00130417        0.00170042        0.00288009        0.00254937
      10         -0.520801        2.000000        0.17485017        0.00963679        0.00393428        0.02357873        0.00234391        0.00052839        0.00107452        0.00115026        0.00087173
      11         -0.519833        2.000000        0.07313440        0.00407284        0.00259725        0.00876679        0.00100390        0.00027424        0.00056567        0.00063348        0.00052621
      12         -0.518418        2.000000        0.06140418        0.00428309        0.00236476        0.00639284        0.00071440        0.00029683        0.00058835        0.00047296        0.00056286
      13         -0.514466        2.000000        0.01009992        0.00058401        0.00144015        0.00089150        0.00012319        0.00010014        0.00022827        0.00006997        0.00012791
      14         -0.512100        2.000000        0.00467120        0.00069807        0.00085171        0.00018091        0.00003077        0.00005862        0.00015168        0.00002996        0.00011089
      15         -0.490802        2.000000        0.54627341        0.13493694        0.00232315        0.07927871        0.01254115        0.00864938        0.00080661        0.00592924        0.01628563
      16         -0.488033        2.000000        0.54196409        0.06215955        0.00217268        0.15062534        0.01939227        0.00561559        0.00073459        0.00880884        0.01259283
      17         -0.484182        2.000000        0.54367935        0.06118427        0.00160580        0.13832431        0.02181722        0.00422831        0.00047874        0.01089178        0.01308919
      18         -0.483100        2.000000        0.53059097        0.09915207        0.00285588        0.11042156        0.01548226        0.00709001        0.00048215        0.00829662        0.01245679
      19         -0.481491        2.000000        0.38078028        0.09302208        0.00070964        0.05883470        0.00975333        0.00522129        0.00037350        0.00384072        0.01121413
      20         -0.480528        2.000000        0.53099628        0.11406398        0.00115953        0.06826432        0.01148114        0.00956078        0.00050034        0.00409419        0.02636295
      21         -0.479531        2.000000        0.22213396        0.05511626        0.00121953        0.03087172        0.00468655        0.00311957        0.00024125        0.00270141        0.00800411
      22         -0.478227        2.000000        0.54680423        0.10794482        0.00240169        0.08269855        0.01678899        0.00734223        0.00061866        0.00564031        0.02204196
      23         -0.477134        2.000000        0.31424992        0.07050488        0.00115758        0.05522059        0.00813652        0.00389629        0.00027176        0.00319441        0.01119662
      24         -0.475996        2.000000        0.21720356        0.04134567        0.00079835        0.04522806        0.00625220        0.00240556        0.00018878        0.00284508        0.00655643
      25         -0.473504        2.000000        0.01539564        0.00271245        0.00031092        0.00258731        0.00053572        0.00021003        0.00004471        0.00023266        0.00055424
      26         -0.473081        2.000000        0.00972484        0.00220892        0.00031887        0.00167992        0.00026333        0.00016400        0.00004245        0.00010874        0.00034945
      27         -0.471522        2.000000        0.00944093        0.00190136        0.00039243        0.00202782        0.00027284        0.00013642        0.00003774        0.00011162        0.00034095
      28         -0.469930        2.000000        0.00491472        0.00127634        0.00035998        0.00103148        0.00014043        0.00008038        0.00003959        0.00006182        0.00019266
      29         -0.469186        2.000000        0.08067867        0.00946089        0.00060890        0.01961024        0.00394186        0.00053669        0.00011425        0.00130757        0.00162735
      30         -0.467936        2.000000        0.47540589        0.05235141        0.00271158        0.11360995        0.02144207        0.00355913        0.00052831        0.00799608        0.01030428
      31         -0.467867        2.000000        0.00586436        0.00127787        0.00045579        0.00122577        0.00017035        0.00013914        0.00005021        0.00012277        0.00019989
      32         -0.463877        2.000000        0.00213359        0.00057409        0.00046759        0.00069072        0.00007502        0.00004428        0.00004354        0.00004629        0.00005803
      33         -0.422752        2.000000        0.37470002        0.08716944        0.04361613        0.18801671        0.00949893        0.00658956        0.00721479        0.01683684        0.00539353
      34         -0.420154        2.000000        0.36657663        0.08310600        0.03907906        0.19484571        0.00923657        0.00659680        0.00818876        0.01598046        0.00448563
      35         -0.417850        2.000000        0.33953090        0.20158990        0.04292052        0.05293057        0.00367667        0.01609066        0.00668195        0.00413903        0.01067864
      36         -0.413882        2.000000        0.30234032        0.06947311        0.05715522        0.08508345        0.01259058        0.00916955        0.00618610        0.00940492        0.00736350
      37         -0.410835        2.000000        0.16342927        0.05009583        0.02218854        0.04636592        0.00585869        0.00441334        0.00431252        0.00462712        0.00656220
      38         -0.410622        2.000000        0.09752793        0.02261178        0.01403823        0.03079252        0.00417063        0.00250815        0.00191076        0.00334565        0.00237036
      39         -0.410253        2.000000        0.27206002        0.07560795        0.03903273        0.08590771        0.00994078        0.00762002        0.00596053        0.00865509        0.00930636
      40         -0.409436        2.000000        0.08077439        0.01955754        0.01399104        0.02679714        0.00259962        0.00277336        0.00140779        0.00265629        0.00214801
      41         -0.407417        2.000000        0.25414453        0.09046925        0.04218786        0.05457643        0.00631622        0.00998463        0.00636683        0.00761623        0.00949797
      42         -0.406279        2.000000        0.37255905        0.13092382        0.04674815        0.09991502        0.01103952        0.01155861        0.01169612        0.00896879        0.01763395
      43         -0.403855        2.000000        0.13279085        0.04322571        0.01749687        0.03405403        0.00438222        0.00376164        0.00315116        0.00388372        0.00477980
      44         -0.402429        2.000000        0.36601898        0.09642004        0.03995483        0.12230224        0.01680656        0.00763660        0.01196659        0.01062514        0.01040770
      45         -0.401615        2.000000        0.16081691        0.04822839        0.02174581        0.04462420        0.00509152        0.00414901        0.00479260        0.00443854        0.00728027
      46         -0.401015        2.000000        0.19644939        0.05047880        0.02665529        0.06259461        0.00709369        0.00539543        0.00577417        0.00564898        0.00781914
      47         -0.399907        2.000000        0.01101733        0.00360999        0.00159470        0.00338685        0.00046126        0.00039702        0.00019299        0.00020886        0.00030129
      48         -0.399397        2.000000        0.01540223        0.00565408        0.00253481        0.00414512        0.00042392        0.00045765        0.00034092        0.00043570        0.00067828
      49         -0.397545        2.000000        0.06599900        0.02110746        0.00876229        0.01894046        0.00214294        0.00166478        0.00172313        0.00169488        0.00287183
      50         -0.396995        2.000000        0.00731473        0.00172246        0.00188858        0.00301272        0.00030860        0.00019505        0.00029022        0.00019425        0.00019389
      51         -0.385490        2.000000        0.20240189        0.02078361        0.21611974        0.03098311        0.00496271        0.00527866        0.00902412        0.00735608        0.00306706
      52         -0.380399        2.000000        0.14858353        0.02926907        0.17333645        0.00926127        0.00084946        0.00681199        0.00908057        0.00114835        0.00520376
      53         -0.378073        2.000000        0.15139538        0.02474704        0.20453847        0.01147892        0.00236062        0.00452994        0.00871534        0.00298034        0.00311022
      54         -0.377048        2.000000        0.17645611        0.01594685        0.16752276        0.03392477        0.00590454        0.00285461        0.01118969        0.00764791        0.00260563
      55         -0.374925        2.000000        0.16558230        0.01568906        0.16016747        0.03128873        0.00465985        0.00406451        0.01090593        0.00610152        0.00257283
      56         -0.372942        2.000000        0.10086100        0.01134034        0.09332245        0.01955500        0.00358207        0.00161062        0.00724799        0.00352006        0.00175673
      57         -0.371539        2.000000        0.18173980        0.03235242        0.16078324        0.02065983        0.00207937        0.00607846        0.01108345        0.00339336        0.00508703
      58         -0.366111        2.000000        0.07907260        0.01797920        0.06552959        0.00735845        0.00086427        0.00344994        0.00437353        0.00072884        0.00283003
      59         -0.365225        2.000000        0.12372540        0.01609017        0.10490204        0.02399594        0.00364112        0.00242519        0.00797883        0.00415183        0.00203252
      60         -0.363789        2.000000        0.09050017        0.01037579        0.07797859        0.01837931        0.00284699        0.00161015        0.00474513        0.00273062        0.00152488
      61         -0.361709        2.000000        0.12594510        0.01991419        0.10806247        0.01775060        0.00272832        0.00360138        0.00744534        0.00291801        0.00309538
      62         -0.361180        2.000000        0.12096400        0.01123069        0.10627872        0.02528451        0.00391748        0.00184761        0.00709083        0.00394942        0.00176997
      63         -0.358839        2.000000        0.10532574        0.02383903        0.08179594        0.00745970        0.00110872        0.00349586        0.00633503        0.00196354        0.00368974
      64         -0.353777        2.000000        0.08368169        0.00449190        0.13302122        0.00724738        0.00104218        0.00090121        0.00469546        0.00139894        0.00051298
      65         -0.280682        2.000000        0.00095729        0.00141469        0.00397091        0.00182373        0.00010821        0.00012781        0.00045376        0.00026651        0.00011548
      66         -0.279431        2.000000        0.00204894        0.00687072        0.01713787        0.00947635        0.00019613        0.00033974        0.00103518        0.00027932        0.00042203
      67         -0.275423        2.000000        0.00228932        0.00521851        0.01815332        0.00609744        0.00032359        0.00058964        0.00185845        0.00024489        0.00044596
      68         -0.273151        2.000000        0.00696847        0.02169310        0.08046434        0.04137886        0.00161727        0.00076020        0.00459652        0.00072718        0.00229744
      69         -0.270207        2.000000        0.00746865        0.05560393        0.12028892        0.05474352        0.00269243        0.00079853        0.00483448        0.00051984        0.00126391
      70         -0.269014        2.000000        0.00623206        0.05192916        0.08681173        0.04193832        0.00151793        0.00084826        0.00312753        0.00041230        0.00201377
      71         -0.267219        2.000000        0.00471296        0.02063802        0.07671306        0.03816327        0.00078848        0.00042575        0.00277258        0.00043931        0.00142862
      72         -0.265337        2.000000        0.00740870        0.07604481        0.23385700        0.12752187        0.00116674        0.00097596        0.00759088        0.00121039        0.00247722
      73         -0.264008        2.000000        0.00496409        0.05365747        0.21233190        0.09408003        0.00192299        0.00093929        0.00823695        0.00138184        0.00072503
      74         -0.262865        2.000000        0.00427750        0.04945216        0.08745672        0.02265597        0.00158824        0.00061303        0.00328295        0.00050380        0.00078208
      75         -0.262161        2.000000        0.00376963        0.07354106        0.17633788        0.06678215        0.00219523        0.00107342        0.00626624        0.00114927        0.00075156
      76         -0.261252        2.000000        0.00455085        0.03317947        0.07338951        0.02386868        0.00085567        0.00068520        0.00259748        0.00025824        0.00177393
      77         -0.258574        2.000000        0.00346991        0.02098967        0.06602262        0.01969553        0.00101217        0.00037713        0.00385481        0.00043472        0.00106587
      78         -0.256350        2.000000        0.00309478        0.02591165        0.06338543        0.01138917        0.00102092        0.00066982        0.00522119        0.00041889        0.00082540
      79         -0.255440        2.000000        0.00554576        0.04511659        0.13122900        0.04256999        0.00124424        0.00071073        0.00623815        0.00088293        0.00295216
      80         -0.255148        2.000000        0.00519891        0.04794709        0.15583886        0.02820529        0.00240963        0.00106055        0.01116564        0.00090082        0.00236774
      81         -0.253958        2.000000        0.01005770        0.04184840        0.15278670        0.06124026        0.00319774        0.00154506        0.01125694        0.00133252        0.00293567
      82         -0.251765        2.000000        0.00379381        0.03386585        0.10310235        0.02175219        0.00169939        0.00097134        0.00718697        0.00053696        0.00152528
      83         -0.251622        2.000000        0.00508367        0.02605677        0.07055262        0.01610532        0.00131436        0.00049559        0.00420027        0.00043197        0.00165283
      84         -0.251073        2.000000        0.00865336        0.02398199        0.10093370        0.05311968        0.00321730        0.00160072        0.00647872        0.00108185        0.00206926
      85         -0.249927        2.000000        0.01172402        0.10181056        0.26321031        0.09005897        0.00486599        0.00178088        0.01047593        0.00128599        0.00786166
      86         -0.249548        2.000000        0.00722794        0.03626610        0.13814783        0.05396583        0.00288671        0.00219943        0.00915694        0.00075105        0.00231191
      87         -0.249345        2.000000        0.00301746        0.01555124        0.08144583        0.03003798        0.00154107        0.00105188        0.00489292        0.00090158        0.00098191
      88         -0.247862        2.000000        0.01195582        0.08408727        0.19964284        0.05877670        0.00380864        0.00095929        0.00850378        0.00121222        0.00569092
      89         -0.247583        2.000000        0.01088423        0.07203186        0.18211123        0.07185849        0.00553009        0.00108996        0.01029182        0.00192043        0.00290340
      90         -0.246778        2.000000        0.00581370        0.03916173        0.15757472        0.05219635        0.00294095        0.00130917        0.00710197        0.00131181        0.00264258
      91         -0.245826        2.000000        0.00817102        0.03884166        0.13785988        0.03730293        0.00274468        0.00143347        0.01519856        0.00158171        0.00196256
      92         -0.245244        2.000000        0.00572954        0.02497405        0.10480089        0.02639145        0.00137439        0.00170415        0.01331473        0.00129829        0.00152991
      93         -0.244471        2.000000        0.01594938        0.06122237        0.22033025        0.11270795        0.00664913        0.00218804        0.01041603        0.00198984        0.00589764
      94         -0.243640        2.000000        0.00443642        0.02060646        0.09510069        0.03033080        0.00230257        0.00115436        0.00843227        0.00109804        0.00065875
      95         -0.243117        2.000000        0.00662757        0.03771202        0.10413985        0.02585535        0.00173406        0.00139610        0.01092175        0.00091512        0.00241679
      96         -0.242586        2.000000        0.00471646        0.03984940        0.14561033        0.04054960        0.00152716        0.00237440        0.01347644        0.00177177        0.00290210
      97         -0.241680        2.000000        0.00692007        0.05588960        0.20967365        0.04698579        0.00290806        0.00219789        0.01369825        0.00145617        0.00470819
      98         -0.240486        2.000000        0.00888421        0.04983003        0.19465056        0.05061433        0.00447608        0.00108787        0.01353997        0.00147648        0.00240252
      99         -0.239656        2.000000        0.00726425        0.04518663        0.12948265        0.05167262        0.00321096        0.00136396        0.01558415        0.00183834        0.00127981
     100         -0.238347        2.000000        0.00551923        0.08471595        0.20235200        0.05703555        0.00255160        0.00161489        0.01996514        0.00382382        0.00283436
     101         -0.238185        2.000000        0.01101177        0.03284438        0.11923371        0.05856558        0.00291032        0.00198339        0.01417377        0.00133204        0.00284693
     102         -0.237636        2.000000        0.01274769        0.10060175        0.17794331        0.07612283        0.00384180        0.00261678        0.01323710        0.00286564        0.00632740
     103         -0.235941        2.000000        0.01270460        0.06768365        0.21462698        0.10012522        0.00577148        0.00420781        0.02506344        0.00228465        0.00300167
     104         -0.235545        2.000000        0.00826115        0.06675250        0.16869619        0.07487010        0.00182047        0.00265769        0.02373814        0.00216620        0.00323244
     105         -0.234412        2.000000        0.00706473        0.04136927        0.08681719        0.04336571        0.00294090        0.00126459        0.00960984        0.00145304        0.00197223
     106         -0.233614        2.000000        0.01043936        0.08950458        0.16080019        0.09913458        0.00520760        0.00324274        0.01720247        0.00307941        0.00287490
     107         -0.233146        2.000000        0.00451675        0.04583789        0.12474357        0.06595857        0.00367199        0.00199986        0.01255401        0.00201966        0.00209177
     108         -0.231613        2.000000        0.00809883        0.04064029        0.18146645        0.08370572        0.00224905        0.00294868        0.01896595        0.00170652        0.00497252
     109         -0.231331        2.000000        0.01913531        0.07115639        0.16329358        0.09927802        0.00992078        0.00214370        0.01801155        0.00218295        0.00527929
     110         -0.230667        2.000000        0.01383777        0.04455885        0.13514176        0.05765851        0.00395686        0.00244283        0.01950770        0.00303335        0.00367033
     111         -0.229192        2.000000        0.00937174        0.05885021        0.18660560        0.09216734        0.00415976        0.00509114        0.02223792        0.00319985        0.00241390
     112         -0.227905        2.000000        0.01535148        0.09215004        0.23992601        0.07559324        0.00645979        0.00277772        0.02985603        0.00455375        0.00467760
     113         -0.227169        2.000000        0.02388720        0.11782268        0.14617941        0.10838606        0.00656107        0.00199353        0.01386830        0.00328228        0.00865803
     114         -0.226190        2.000000        0.01959059        0.08385230        0.11524498        0.07386514        0.00663230        0.00194538        0.01530710        0.00142702        0.00497748
     115         -0.225738        2.000000        0.02009717        0.12162048        0.18898508        0.09621314        0.00514551        0.00375658        0.02191943        0.00373202        0.00862014
     116         -0.224481        2.000000        0.01993025        0.08383741        0.17855824        0.08916690        0.00831503        0.00223295        0.01158266        0.00342613        0.00492781
     117         -0.224060        2.000000        0.02413050        0.10543805        0.18993862        0.11300885        0.00797598        0.00197352        0.02571113        0.00254800        0.00802555
     118         -0.223333        2.000000        0.02053207        0.16701556        0.16313142        0.05677236        0.00343027        0.00219736        0.01749962        0.00215960        0.01132828
     119         -0.222569        2.000000        0.02208938        0.10452631        0.15287812        0.08890898        0.00647905        0.00268353        0.01563874        0.00114492        0.00788819
     120         -0.221615        2.000000        0.01415502        0.07901051        0.24950287        0.09258345        0.00554958        0.00524929        0.02011481        0.00300597        0.01032013
     121         -0.221240        2.000000        0.02729648        0.11278210        0.17276993        0.10681442        0.00964915        0.00277436        0.01895809        0.00266515        0.01021832
     122         -0.219856        2.000000        0.02253037        0.11897545        0.23171931        0.13461957        0.00783895        0.00278624        0.02484829        0.00543655        0.00742633
     123         -0.219269        2.000000        0.00832793        0.05493897        0.17133066        0.04473790        0.00469317        0.00212474        0.02206559        0.00375158        0.00298713
     124         -0.218535        2.000000        0.02391104        0.16116377        0.21534240        0.17701895        0.01424005        0.00600526        0.02030525        0.00467411        0.00663938
     125         -0.215583        2.000000        0.02545881        0.14524455        0.18991234        0.15394508        0.01044218        0.00273959        0.01434585        0.00481228        0.01079050
     126         -0.214202        2.000000        0.00903578        0.12468377        0.20093461        0.14185950        0.00712716        0.00557117        0.03455492        0.00515775        0.00692638
     127         -0.212808        2.000000        0.00986363        0.06825819        0.19034128        0.13639745        0.00599781        0.00473088        0.03463883        0.00423574        0.00605179
     128         -0.212502        2.000000        0.02054431        0.12693923        0.26985189        0.11286008        0.00785601        0.00384014        0.04887088        0.00531964        0.00707640
     129         -0.208773        2.000000        0.02993970        0.12194815        0.22847123        0.17175175        0.01449770        0.00458381        0.02622319        0.00708347        0.01182619
     130         -0.207679        2.000000        0.01847225        0.12507458        0.20673623        0.10616702        0.00653041        0.00224266        0.03457865        0.00446203        0.01144821
     131         -0.206113        2.000000        0.01527992        0.18412284        0.21071836        0.08913123        0.01184259        0.00583541        0.03070057        0.00737090        0.00669526
     132         -0.204166        2.000000        0.02044889        0.17817276        0.23273191        0.14815474        0.00681184        0.00662356        0.02996678        0.00711951        0.01748214
     133         -0.201946        2.000000        0.01936064        0.17405756        0.19857499        0.21864136        0.00666061        0.00684374        0.03185717        0.00921107        0.01743879
     134         -0.201446        2.000000        0.01581200        0.16408839        0.22419486        0.19805953        0.01286905        0.00723679        0.02756087        0.00897823        0.01202099
     135         -0.199276        2.000000        0.02347351        0.11927039        0.22029194        0.16338429        0.01237586        0.00575981        0.02810580        0.00654676        0.01306475
     136         -0.198092        2.000000        0.01455224        0.19346401        0.17331973        0.23582826        0.01081397        0.01002237        0.02267515        0.00677481        0.01451265
     137         -0.195166        2.000000        0.02322292        0.29925976        0.18774258        0.10270276        0.02192867        0.00727495        0.01716269        0.00933344        0.00872028
     138         -0.194810        2.000000        0.01833755        0.25681291        0.20218324        0.18517857        0.01794535        0.01380550        0.01851371        0.01005665        0.00828428
     139         -0.193343        2.000000        0.00225574        0.02297556        0.02260945        0.01124714        0.00120030        0.00090307        0.00265907        0.00068421        0.00170601
     140         -0.191450        2.000000        0.00192885        0.01624678        0.01950408        0.00895224        0.00142381        0.00052811        0.00198699        0.00059004        0.00085258
     141         -0.188232        2.000000        0.00031166        0.00305310        0.00459735        0.00175181        0.00017513        0.00012478        0.00057419        0.00008429        0.00023655
     142         -0.176580        2.000000        0.00005227        0.00070121        0.00183197        0.00077888        0.00004446        0.00003960        0.00022276        0.00003774        0.00006081
     143         -0.170686        2.000000        0.00003524        0.00021828        0.00093950        0.00109298        0.00003228        0.00002454        0.00005724        0.00005155        0.00002449
     144         -0.169092        2.000000        0.00010288        0.00114115        0.00105186        0.00118311        0.00005485        0.00005781        0.00014029        0.00002516        0.00005557