# Projected DOS for atomic kind Ge at iteration step i = 0, E(Fermi) =    -0.094008 a.u.
#     MO Eigenvalue [a.u.]      Occupation                 s                py                pz                px               d-2               d-1                d0               d+1               d+2
       1         -0.557984        2.000000        0.75080313        0.00506937        0.01984742        0.00390717        0.00059967        0.00047353        0.00747126        0.00056507        0.00086585
       2         -0.544306        2.000000        0.01285457        0.00011391        0.00325945        0.00017847        0.00002885        0.00001232        0.00068256        0.00004505        0.00002838
       3         -0.537375        2.000000        0.64984731        0.03632135        0.01216538        0.07578592        0.00714184        0.00207994        0.00272546        0.00433689        0.00369679
       4         -0.534427        2.000000        0.65603589        0.08425550        0.01384767        0.02985478        0.00296247        0.00419370        0.00256924        0.00173452        0.00869715
       5         -0.530410        2.000000        0.65023064        0.03252375        0.00883730        0.08244280        0.00831320        0.00177365        0.00317743        0.00483761        0.00354826
       6         -0.529075        2.000000        0.60969255        0.04172466        0.00858710        0.06399455        0.00657217        0.00228775        0.00243322        0.00344653        0.00419353
       7         -0.526918        2.000000        0.58363925        0.09367706        0.00763346        0.00889005        0.00154139        0.00481391        0.00294294        0.00081926        0.00978799
       8         -0.525334        2.000000        0.11319014        0.01551107        0.00309345        0.00371276        0.00043468        0.00093783        0.00076715        0.00033784        0.00192265
       9         -0.521605        2.000000        0.56527922        0.03228558        0.00640716        0.07367325        0.00708364        0.00171882        0.00242451        0.00411346        0.00326636
      10         -0.519348        2.000000        0.04316322        0.00269434        0.00224710        0.00526951        0.00060367        0.00018474        0.00047051        0.00026084        0.00028831
      11         -0.518541        2.000000        0.01367224        0.00112401        0.00185264        0.00092358        0.00016817        0.00008885        0.00029940        0.00012202        0.00017738
      12         -0.518039        2.000000        0.06518336        0.00371196        0.00206817        0.00775652        0.00086568        0.00027154        0.00054846        0.00056240        0.00047898
      13         -0.513782        2.000000        0.00880042        0.00047793        0.00148625        0.00078713        0.00011499        0.00008476        0.00021679        0.00006780        0.00010946
      14         -0.511015        2.000000        0.00462199        0.00064055        0.00088028        0.00021799        0.00003439        0.00005869        0.00015484        0.00003234        0.00010269
      15         -0.491131        2.000000        0.54633787        0.13585804        0.00227835        0.07870191        0.01246224        0.00860552        0.00082251        0.00580607        0.01632956
      16         -0.487534        2.000000        0.54152426        0.05858777        0.00241245        0.15449677        0.01964372        0.00538485        0.00070663        0.00912568        0.01200671
      17         -0.484523        2.000000        0.54412129        0.06107544        0.00187376        0.14208966        0.02010896        0.00450816        0.00033274        0.01164019        0.01365319
      18         -0.483287        2.000000        0.54029970        0.09217395        0.00243947        0.11228813        0.01771317        0.00662053        0.00071914        0.00810162        0.01295142
      19         -0.481418        2.000000        0.49749360        0.11935323        0.00101818        0.07651070        0.01259102        0.00782847        0.00053239        0.00455965        0.01629174
      20         -0.481046        2.000000        0.53022753        0.12462610        0.00122324        0.06263339        0.01085538        0.00899222        0.00045704        0.00431883        0.02374079
      21         -0.478727        2.000000        0.22516442        0.04003584        0.00130939        0.04201031        0.00789319        0.00220321        0.00023517        0.00378709        0.00674679
      22         -0.478464        2.000000        0.40931495        0.08385312        0.00216095        0.05783970        0.01225913        0.00588879        0.00060769        0.00368605        0.01642302
      23         -0.476515        2.000000        0.33981233        0.08340246        0.00116284        0.05056681        0.00765751        0.00469249        0.00031299        0.00294192        0.01416014
      24         -0.475401        2.000000        0.20098625        0.04200732        0.00093418        0.03733646        0.00546112        0.00251543        0.00022357        0.00227169        0.00685343
      25         -0.472606        2.000000        0.01899983        0.00353980        0.00037258        0.00393338        0.00058436        0.00026764        0.00004741        0.00023272        0.00063145
      26         -0.471662        2.000000        0.00864422        0.00140664        0.00029265        0.00148103        0.00032757        0.00011642        0.00003607        0.00014475        0.00030011
      27         -0.469945        2.000000        0.00753611        0.00156758        0.00029556        0.00155514        0.00024478        0.00011639        0.00003557        0.00007241        0.00024936
      28         -0.468866        2.000000        0.01128252        0.00215875        0.00045363        0.00217619        0.00042419        0.00012439        0.00006601        0.00021171        0.00031105
      29         -0.468517        2.000000        0.39960185        0.04382469        0.00198468        0.09700342        0.01827209        0.00278344        0.00047295        0.00666095        0.00879000
      30         -0.467563        2.000000        0.08038372        0.00858719        0.00080856        0.02039324        0.00338492        0.00064692        0.00012859        0.00145849        0.00173291
      31         -0.467186        2.000000        0.06739695        0.00748268        0.00052973        0.01604943        0.00287057        0.00056791        0.00009355        0.00116503        0.00163580
      32         -0.463796        2.000000        0.00200591        0.00055693        0.00048531        0.00065172        0.00006993        0.00004486        0.00004145        0.00005526        0.00005192
      33         -0.423279        2.000000        0.37560749        0.07957211        0.03949000        0.20256595        0.01065443        0.00514379        0.00788072        0.01762845        0.00411054
      34         -0.420051        2.000000        0.37008193        0.08151872        0.04037971        0.19583271        0.00924653        0.00620535        0.00824030        0.01652639        0.00471619
      35         -0.417826        2.000000        0.32902973        0.21182099        0.04645165        0.03067090        0.00231763        0.01733475        0.00615247        0.00331831        0.01091478
      36         -0.414593        2.000000        0.34729243        0.08503274        0.06663613        0.09706268        0.01410003        0.01117495        0.00725046        0.01020015        0.00824512
      37         -0.411937        2.000000        0.06344587        0.02057117        0.00957333        0.01784630        0.00163666        0.00214755        0.00156622        0.00177572        0.00260820
      38         -0.410211        2.000000        0.38965976        0.11610196        0.05246070        0.10882455        0.01332679        0.01182017        0.00898843        0.01069040        0.01443981
      39         -0.409503        2.000000        0.15792630        0.04487037        0.02712657        0.04108685        0.00524426        0.00483741        0.00403486        0.00539021        0.00597606
      40         -0.408824        2.000000        0.06395952        0.01389827        0.01247851        0.02131457        0.00212797        0.00203227        0.00094467        0.00225403        0.00137470
      41         -0.407862        2.000000        0.22813343        0.07120997        0.03709249        0.05305537        0.00681132        0.00791500        0.00567058        0.00756010        0.00860056
      42         -0.406332        2.000000        0.34712150        0.12434571        0.04408446        0.09109970        0.01060683        0.01115455        0.01071347        0.00825728        0.01582734
      43         -0.403430        2.000000        0.22462637        0.05871594        0.02786840        0.07335021        0.00951384        0.00481898        0.00673685        0.00653859        0.00676218
      44         -0.402838        2.000000        0.26522080        0.07539348        0.02842233        0.08227862        0.01018829        0.00607005        0.00822788        0.00713913        0.00969870
      45         -0.401399        2.000000        0.32582549        0.08372170        0.04707269        0.10373619        0.01221121        0.00810240        0.00974172        0.01016106        0.01225526
      46         -0.399941        2.000000        0.01261328        0.00421766        0.00239834        0.00403401        0.00043150        0.00051035        0.00031428        0.00021260        0.00042662
      47         -0.399508        2.000000        0.01495983        0.00438182        0.00189748        0.00538644        0.00056003        0.00039351        0.00034662        0.00043119        0.00056105
      48         -0.397402        2.000000        0.02054369        0.00685128        0.00463450        0.00529406        0.00064012        0.00053796        0.00061575        0.00051158        0.00082451
      49         -0.396683        2.000000        0.02872198        0.00842459        0.00372416        0.00976103        0.00099606        0.00077466        0.00080968        0.00074660        0.00119693
      50         -0.395308        2.000000        0.01089855        0.00283088        0.00478021        0.00305852        0.00041107        0.00027128        0.00037964        0.00033061        0.00031341
      51         -0.386464        2.000000        0.19229954        0.02015768        0.20465970        0.02975089        0.00441098        0.00493309        0.00876259        0.00692350        0.00301848
      52         -0.380240        2.000000        0.17278983        0.03688574        0.17358182        0.01163076        0.00123013        0.00881766        0.00973251        0.00196286        0.00630125
      53         -0.379880        2.000000        0.16871501        0.01800098        0.22897393        0.02117890        0.00376604        0.00250035        0.01033904        0.00490231        0.00242899
      54         -0.376154        2.000000        0.17387529        0.02031967        0.17264274        0.03000176        0.00482634        0.00394679        0.01137080        0.00596260        0.00334093
      55         -0.374665        2.000000        0.18678515        0.01560289        0.16865420        0.03933428        0.00588942        0.00381043        0.01082043        0.00749219        0.00230728
      56         -0.372040        2.000000        0.18623574        0.03668195        0.16425516        0.01842804        0.00179497        0.00703176        0.01194219        0.00322433        0.00563015
      57         -0.371557        2.000000        0.11973276        0.01478040        0.12094226        0.02092449        0.00372141        0.00239564        0.00856287        0.00380370        0.00221008
      58         -0.366078        2.000000        0.08874062        0.01445547        0.09121365        0.01217071        0.00153899        0.00228177        0.00475436        0.00151797        0.00206941
      59         -0.363888        2.000000        0.11702403        0.01676743        0.08739499        0.02115482        0.00339306        0.00276442        0.00718026        0.00336221        0.00276202
      60         -0.362384        2.000000        0.09058699        0.01643915        0.07580482        0.01001804        0.00141322        0.00329592        0.00509251        0.00218211        0.00245274
      61         -0.361226        2.000000        0.07859160        0.00779038        0.06356813        0.01749055        0.00256630        0.00149267        0.00456889        0.00235262        0.00115099
      62         -0.359920        2.000000        0.12430165        0.01390579        0.10538315        0.02378108        0.00386404        0.00239318        0.00749856        0.00405343        0.00228403
      63         -0.357893        2.000000        0.06432980        0.01743195        0.04353530        0.00440864        0.00060735        0.00219969        0.00403947        0.00098148        0.00256290
      64         -0.354080        2.000000        0.08448046        0.00452398        0.14199810        0.00548879        0.00071946        0.00098530        0.00497855        0.00135615        0.00046686
      65         -0.281081        2.000000        0.00079650        0.00153324        0.00412465        0.00195193        0.00009323        0.00011773        0.00038157        0.00026852        0.00010028
      66         -0.278342        2.000000        0.00234840        0.00847220        0.01970313        0.01115807        0.00022499        0.00040446        0.00117906        0.00033246        0.00049955
      67         -0.274498        2.000000        0.00286964        0.00867208        0.03070339        0.01195438        0.00049614        0.00076992        0.00240524        0.00036918        0.00071343
      68         -0.272141        2.000000        0.00676942        0.02249571        0.08543193        0.04730742        0.00190923        0.00078072        0.00424702        0.00077953        0.00240314
      69         -0.269567        2.000000        0.00845685        0.09671593        0.16135505        0.05584781        0.00356819        0.00075696        0.00603298        0.00063281        0.00110061
      70         -0.268788        2.000000        0.00522354        0.03995887        0.07238437        0.03937362        0.00114910        0.00074644        0.00246235        0.00041540        0.00191979
      71         -0.266820        2.000000        0.00660910        0.04009988        0.12652294        0.07059728        0.00083261        0.00060346        0.00427765        0.00072801        0.00194476
      72         -0.264912        2.000000        0.00688080        0.06206137        0.20255652        0.11626768        0.00118336        0.00117082        0.00716048        0.00105548        0.00238404
      73         -0.263225        2.000000        0.00462469        0.02276664        0.15875869        0.07632619        0.00220299        0.00066307        0.00712623        0.00124519        0.00061982
      74         -0.262929        2.000000        0.00420050        0.10193957        0.15923473        0.02595055        0.00173617        0.00108219        0.00550663        0.00044986        0.00063169
      75         -0.261412        2.000000        0.00288100        0.03062358        0.11873872        0.05386215        0.00110130        0.00067989        0.00448721        0.00117155        0.00094336
      76         -0.260458        2.000000        0.00438279        0.04421451        0.07698941        0.02235237        0.00082082        0.00064348        0.00265289        0.00022971        0.00189083
      77         -0.258211        2.000000        0.00312729        0.02350441        0.07293066        0.02452932        0.00088322        0.00034177        0.00415921        0.00058127        0.00122939
      78         -0.255935        2.000000        0.00397400        0.03394978        0.12172805        0.02814556        0.00161896        0.00109729        0.00907564        0.00091155        0.00203563
      79         -0.254712        2.000000        0.00741291        0.05049769        0.12851477        0.03599028        0.00164391        0.00065071        0.00648881        0.00084343        0.00334960
      80         -0.253818        2.000000        0.00673048        0.05124353        0.14604541        0.04168560        0.00242138        0.00128209        0.01059143        0.00127859        0.00234085
      81         -0.253276        2.000000        0.00730127        0.03723137        0.11758904        0.04153626        0.00275201        0.00136650        0.00876715        0.00099213        0.00223320
      82         -0.252026        2.000000        0.00545524        0.03239488        0.10792911        0.03854853        0.00175682        0.00144973        0.00787204        0.00087002        0.00287399
      83         -0.251421        2.000000        0.00562198        0.02713776        0.06628436        0.02188169        0.00143876        0.00037483        0.00364372        0.00035918        0.00210380
      84         -0.250711        2.000000        0.01121949        0.09628203        0.22834049        0.08421352        0.00541735        0.00201881        0.00797057        0.00128932        0.00629838
      85         -0.249920        2.000000        0.00936518        0.04829032        0.15837203        0.05719012        0.00415217        0.00208722        0.01316593        0.00124089        0.00179693
      86         -0.249122        2.000000        0.00697723        0.01834477        0.09253147        0.03766380        0.00172877        0.00123779        0.00824914        0.00084375        0.00214168
      87         -0.248381        2.000000        0.01515343        0.13324684        0.25517517        0.05409402        0.00599073        0.00104197        0.01549968        0.00200866        0.00600959
      88         -0.248233        2.000000        0.00388162        0.03535680        0.12794491        0.03091593        0.00215137        0.00119853        0.00727948        0.00125537        0.00154048
      89         -0.246481        2.000000        0.00486063        0.04597670        0.15651510        0.03767514        0.00269004        0.00102562        0.00814159        0.00083929        0.00226913
      90         -0.246271        2.000000        0.00833299        0.03558707        0.14184459        0.06429437        0.00321475        0.00133147        0.01515228        0.00193722        0.00221730
      91         -0.245454        2.000000        0.00855456        0.03610291        0.13677035        0.05728361        0.00335585        0.00164796        0.01074170        0.00184974        0.00229101
      92         -0.245013        2.000000        0.01216258        0.07057405        0.24803368        0.08297807        0.00735520        0.00223417        0.01260214        0.00192103        0.00397894
      93         -0.244600        2.000000        0.01066244        0.02823970        0.10400431        0.04424217        0.00225649        0.00157759        0.01012381        0.00124474        0.00306266
      94         -0.243104        2.000000        0.00527024        0.02889041        0.08019048        0.02783919        0.00167473        0.00133086        0.00816303        0.00162522        0.00164963
      95         -0.242489        2.000000        0.00693779        0.02679638        0.10963366        0.02360585        0.00176676        0.00132337        0.01171372        0.00108544        0.00263513
      96         -0.242116        2.000000        0.00795827        0.05916304        0.18474229        0.05125563        0.00214962        0.00189908        0.01366542        0.00160324        0.00532338
      97         -0.241326        2.000000        0.00650519        0.04126777        0.11978677        0.03784571        0.00159091        0.00165505        0.01505790        0.00158869        0.00174683
      98         -0.241099        2.000000        0.00426158        0.03461821        0.13278009        0.02274124        0.00181272        0.00225638        0.01184745        0.00106272        0.00204304
      99         -0.240386        2.000000        0.00815487        0.05510899        0.19624899        0.06654032        0.00531056        0.00096112        0.01307162        0.00246354        0.00168647
     100         -0.238692        2.000000        0.00648001        0.05955893        0.22594664        0.07269630        0.00249523        0.00389349        0.02129361        0.00316691        0.00339668
     101         -0.238208        2.000000        0.01515554        0.05170642        0.12771132        0.09339688        0.00539490        0.00167297        0.01200344        0.00203751        0.00416709
     102         -0.237269        2.000000        0.01175788        0.08040443        0.17872197        0.06363686        0.00300128        0.00196304        0.01891614        0.00328946        0.00457240
     103         -0.236009        2.000000        0.01205584        0.07367101        0.18891013        0.10368063        0.00468938        0.00383826        0.02185289        0.00240531        0.00370699
     104         -0.235763        2.000000        0.00572830        0.05672021        0.13860272        0.08819419        0.00166546        0.00281826        0.01812910        0.00211339        0.00344189
     105         -0.234518        2.000000        0.00908795        0.02958086        0.11577426        0.05818815        0.00359847        0.00213525        0.00972199        0.00139085        0.00201902
     106         -0.233373        2.000000        0.00925434        0.07765435        0.15598119        0.09894098        0.00392416        0.00307106        0.02132512        0.00265144        0.00269282
     107         -0.232399        2.000000        0.00774676        0.04737721        0.11683860        0.05522837        0.00451654        0.00148042        0.01090847        0.00164082        0.00279685
     108         -0.231513        2.000000        0.00603477        0.03699904        0.16141560        0.06978451        0.00147811        0.00239028        0.01758795        0.00294932        0.00350149
     109         -0.230648        2.000000        0.01212369        0.07018585        0.14600358        0.05315991        0.00711216        0.00176700        0.01931827        0.00198527        0.00314268
     110         -0.230477        2.000000        0.00849207        0.03900927        0.14326034        0.05103024        0.00346586        0.00305732        0.01832035        0.00245405        0.00238158
     111         -0.229187        2.000000        0.01106953        0.06570004        0.18699671        0.07231836        0.00382537        0.00334801        0.02238876        0.00266392        0.00515606
     112         -0.228703        2.000000        0.02330086        0.08880359        0.24014796        0.09677969        0.00954710        0.00305839        0.02480593        0.00420346        0.00577851
     113         -0.226995        2.000000        0.02932344        0.16097079        0.15911255        0.13734709        0.00767740        0.00216417        0.01361270        0.00443964        0.01001290
     114         -0.226265        2.000000        0.00553881        0.06207361        0.15364327        0.05112975        0.00243967        0.00288510        0.02140268        0.00322380        0.00300051
     115         -0.225762        2.000000        0.03121452        0.12450459        0.14316351        0.11672502        0.00912479        0.00259667        0.01470436        0.00109048        0.00976200
     116         -0.224368        2.000000        0.02483907        0.15132765        0.22966216        0.08982317        0.00507165        0.00280202        0.02505182        0.00363611        0.01178475
     117         -0.223887        2.000000        0.01757190        0.08369107        0.14476453        0.07349971        0.00518228        0.00176402        0.01477577        0.00286962        0.00610171
     118         -0.222862        2.000000        0.02274390        0.10184338        0.18333505        0.12767277        0.01079487        0.00278923        0.02080405        0.00246447        0.00618835
     119         -0.222033        2.000000        0.02193924        0.13658621        0.15515831        0.07445870        0.00941310        0.00308614        0.01207900        0.00258904        0.00876781
     120         -0.221019        2.000000        0.01847121        0.07131310        0.19480342        0.12033877        0.00729815        0.00349424        0.01726432        0.00314778        0.00666004
     121         -0.220953        2.000000        0.02128160        0.10710309        0.15336397        0.06419866        0.00441340        0.00239261        0.01581512        0.00202204        0.01006109
     122         -0.219804        2.000000        0.01035233        0.06172913        0.19337296        0.06853119        0.00383717        0.00305938        0.02438166        0.00466337        0.00387729
     123         -0.219393        2.000000        0.01566984        0.11584412        0.16612792        0.11412789        0.00772154        0.00308375        0.01904341        0.00344057        0.00613978
     124         -0.217741        2.000000        0.01832815        0.15501183        0.23625247        0.13712514        0.01088477        0.00593736        0.02185044        0.00549001        0.00573684
     125         -0.216071        2.000000        0.02745356        0.13877918        0.18747332        0.15265153        0.01082942        0.00213955        0.01470436        0.00405678        0.01128719
     126         -0.213914        2.000000        0.01012294        0.15024877        0.19554622        0.16977204        0.00746380        0.00664107        0.03108526        0.00469455        0.00886046
     127         -0.213087        2.000000        0.02004027        0.03970491        0.22215128        0.12753848        0.01065941        0.00387540        0.03756777        0.00297349        0.00545022
     128         -0.212067        2.000000        0.01828626        0.11178297        0.26281943        0.10510462        0.00637147        0.00356795        0.04652634        0.00562138        0.00648383
     129         -0.208743        2.000000        0.03029907        0.14201497        0.21033381        0.18918529        0.01434072        0.00478686        0.02231210        0.00684260        0.01363957
     130         -0.207742        2.000000        0.01320838        0.08606527        0.21962420        0.09852603        0.00577553        0.00234781        0.03907138        0.00458948        0.00793424
     131         -0.205383        2.000000        0.01482338        0.20059868        0.20358770        0.13674704        0.01243285        0.00714786        0.02528714        0.00750816        0.00867111
     132         -0.204502        2.000000        0.02134812        0.17069801        0.20925310        0.14696043        0.00535224        0.00575226        0.02899608        0.00728937        0.01835824
     133         -0.200993        2.000000        0.01899489        0.15886221        0.22525446        0.17070420        0.01054904        0.00666208        0.02720231        0.00929130        0.01458879
     134         -0.199912        2.000000        0.01707724        0.11857372        0.23413425        0.17709163        0.00767651        0.00599398        0.04070983        0.00754881        0.01107623
     135         -0.198670        2.000000        0.02547316        0.12745392        0.24105569        0.16217111        0.01203773        0.00661470        0.02889696        0.00663801        0.01591467
     136         -0.197608        2.000000        0.01567915        0.23924287        0.16274528        0.26324416        0.01152917        0.01108790        0.01833852        0.00849148        0.01674330
     137         -0.195744        2.000000        0.02439297        0.32682144        0.19377621        0.11885554        0.02294118        0.00690399        0.01748718        0.00983909        0.00830068
     138         -0.194585        2.000000        0.01913761        0.26009046        0.19514407        0.19231239        0.01860750        0.01484427        0.01746943        0.00983616        0.00956612
     139         -0.192457        2.000000        0.00125150        0.01443814        0.01429581        0.00883614        0.00063816        0.00069288        0.00173061        0.00048023        0.00116572
     140         -0.191141        2.000000        0.00136867        0.00945791        0.01454548        0.00755472        0.00091799        0.00039367        0.00180331        0.00033980        0.00065177
     141         -0.187648        2.000000        0.00025776        0.00242931        0.00356438        0.00166257        0.00015896        0.00010891        0.00047073        0.00006797        0.00016632
     142         -0.175985        2.000000        0.00004842        0.00057569        0.00141592        0.00055317        0.00003291        0.00003062        0.00016697        0.00002520        0.00005170
     143         -0.170240        2.000000        0.00003712        0.00025175        0.00082885        0.00115627        0.00003405        0.00002540        0.00004484        0.00005112        0.00002533
     144         -0.168143        2.000000        0.00008745        0.00135784        0.00095610        0.00198475        0.00006308        0.00006255        0.00010780        0.00004390        0.00005979