# Projected DOS for atomic kind Ge at iteration step i = 0, E(Fermi) =    -0.096432 a.u.
#     MO Eigenvalue [a.u.]      Occupation                 s                py                pz                px               d-2               d-1                d0               d+1               d+2
       1         -0.559353        2.000000        0.75222691        0.00588303        0.02013007        0.00531804        0.00075852        0.00048326        0.00728611        0.00064935        0.00099727
       2         -0.541506        2.000000        0.01492022        0.00062810        0.00312762        0.00100460        0.00012070        0.00003816        0.00052212        0.00010613        0.00008773
       3         -0.538026        2.000000        0.65788239        0.03459740        0.01335549        0.07567918        0.00722211        0.00196627        0.00330602        0.00406553        0.00360095
       4         -0.536187        2.000000        0.64974016        0.07138352        0.01338514        0.04207868        0.00431406        0.00341885        0.00215040        0.00250386        0.00708828
       5         -0.531559        2.000000        0.65183931        0.06055721        0.01006220        0.05391962        0.00574856        0.00299306        0.00305040        0.00356155        0.00688148
       6         -0.529879        2.000000        0.64439451        0.05642331        0.00802169        0.05881783        0.00566520        0.00292508        0.00295521        0.00369856        0.00609851
       7         -0.527213        2.000000        0.64961198        0.08270674        0.00935603        0.03025340        0.00378856        0.00468601        0.00337898        0.00159593        0.00830724
       8         -0.522108        2.000000        0.61776516        0.03398968        0.00760520        0.08032893        0.00796094        0.00179660        0.00249997        0.00420471        0.00331532
       9         -0.520456        2.000000        0.03085918        0.00228182        0.00183433        0.00296435        0.00038305        0.00015002        0.00038919        0.00032415        0.00028139
      10         -0.518026        2.000000        0.01741784        0.00146949        0.00155210        0.00133525        0.00020293        0.00015425        0.00029700        0.00013863        0.00025562
      11         -0.515973        2.000000        0.01417035        0.00103926        0.00160204        0.00115257        0.00020295        0.00010617        0.00030277        0.00012334        0.00015907
      12         -0.514093        2.000000        0.01113706        0.00062182        0.00175259        0.00121925        0.00018536        0.00006009        0.00028422        0.00012820        0.00008661
      13         -0.512223        2.000000        0.00930876        0.00054196        0.00153711        0.00091484        0.00012676        0.00007311        0.00023172        0.00006939        0.00010186
      14         -0.509128        2.000000        0.00341129        0.00043113        0.00101457        0.00023870        0.00004467        0.00003501        0.00014917        0.00004496        0.00006727
      15         -0.492368        2.000000        0.54839256        0.13277795        0.00294592        0.08115535        0.01298769        0.00800967        0.00093458        0.00595215        0.01632219
      16         -0.487780        2.000000        0.54143762        0.08107578        0.00181518        0.13184086        0.01493299        0.00603781        0.00074253        0.00926428        0.01446704
      17         -0.486383        2.000000        0.55229862        0.06787355        0.00134279        0.13838871        0.01907138        0.00555074        0.00029277        0.01028897        0.01400948
      18         -0.484430        2.000000        0.54440668        0.09968823        0.00176522        0.11376194        0.02002355        0.00728099        0.00081593        0.00770204        0.01203216
      19         -0.481812        2.000000        0.54548540        0.12979923        0.00140478        0.07563682        0.01094781        0.00749091        0.00047456        0.00522665        0.02156170
      20         -0.481044        2.000000        0.54373799        0.11204868        0.00305784        0.07969848        0.01689268        0.00772192        0.00106750        0.00496111        0.02041405
      21         -0.479353        2.000000        0.54588693        0.09616749        0.00138498        0.10869606        0.01754274        0.00710168        0.00039277        0.00673710        0.01784101
      22         -0.476105        2.000000        0.31375434        0.07433385        0.00108615        0.04421535        0.00818794        0.00410799        0.00033909        0.00309242        0.01315244
      23         -0.475068        2.000000        0.22272909        0.04392200        0.00103754        0.04012840        0.00697464        0.00277659        0.00017480        0.00244208        0.00763701
      24         -0.472665        2.000000        0.01541413        0.00289946        0.00020130        0.00297889        0.00048183        0.00019763        0.00003909        0.00027431        0.00047515
      25         -0.472224        2.000000        0.29694607        0.03154912        0.00217231        0.06998026        0.01300426        0.00234721        0.00039776        0.00483447        0.00666790
      26         -0.471181        2.000000        0.27553058        0.04332590        0.00185420        0.05514064        0.01057916        0.00313103        0.00043689        0.00356630        0.00741742
      27         -0.469242        2.000000        0.00893142        0.00154653        0.00050639        0.00187150        0.00031589        0.00019326        0.00005858        0.00015343        0.00025651
      28         -0.468934        2.000000        0.00238257        0.00054923        0.00030311        0.00054846        0.00006555        0.00005056        0.00003896        0.00003727        0.00009976
      29         -0.467397        2.000000        0.00267686        0.00055421        0.00031903        0.00067714        0.00009342        0.00009208        0.00005158        0.00006746        0.00009288
      30         -0.465234        2.000000        0.00392779        0.00082191        0.00050075        0.00089982        0.00015231        0.00005140        0.00003973        0.00010832        0.00010018
      31         -0.464981        2.000000        0.00322369        0.00052120        0.00035836        0.00074659        0.00012151        0.00005891        0.00003886        0.00008266        0.00010560
      32         -0.461873        2.000000        0.00171691        0.00031447        0.00031359        0.00078158        0.00005597        0.00001659        0.00004654        0.00003061        0.00003359
      33         -0.423621        2.000000        0.37391432        0.09238233        0.03258874        0.20375661        0.00941701        0.00507260        0.00802087        0.01681675        0.00419950
      34         -0.421650        2.000000        0.37804685        0.10601525        0.03518554        0.17647936        0.00999525        0.00650619        0.01047842        0.01414750        0.00571590
      35         -0.419205        2.000000        0.36337813        0.19358303        0.06230264        0.04687184        0.00334463        0.01854571        0.00531197        0.00793787        0.01177767
      36         -0.412485        2.000000        0.39557928        0.09761450        0.06034258        0.10807444        0.01663642        0.00995144        0.00813973        0.01310307        0.01154649
      37         -0.410207        2.000000        0.05922413        0.01237111        0.01140609        0.02231242        0.00212493        0.00148969        0.00139344        0.00218265        0.00125852
      38         -0.409751        2.000000        0.22104375        0.05418721        0.03809651        0.07083605        0.01019118        0.00584847        0.00487517        0.00808506        0.00602052
      39         -0.409706        2.000000        0.36283646        0.10215478        0.04248236        0.10134233        0.01268253        0.01054800        0.01174106        0.00804642        0.01292632
      40         -0.408230        2.000000        0.21523928        0.04854018        0.03374963        0.06812242        0.00965737        0.00500451        0.00556937        0.00741762        0.00576111
      41         -0.407456        2.000000        0.10400097        0.03109465        0.01288467        0.03249534        0.00358612        0.00274996        0.00318558        0.00287706        0.00475424
      42         -0.406674        2.000000        0.33104706        0.11143684        0.04851013        0.08664486        0.00792641        0.01171083        0.00777444        0.00841076        0.01396372
      43         -0.405068        2.000000        0.31906236        0.12003919        0.04613344        0.06981643        0.00745513        0.01152188        0.00856013        0.00784970        0.01406332
      44         -0.404742        2.000000        0.33063776        0.08666479        0.04445816        0.11220721        0.01146378        0.01080877        0.01065845        0.00902314        0.01181606
      45         -0.401447        2.000000        0.06631678        0.02332496        0.00930716        0.01571639        0.00189313        0.00173813        0.00152537        0.00180897        0.00285221
      46         -0.399191        2.000000        0.01884996        0.00762958        0.00243794        0.00506749        0.00046833        0.00064098        0.00040584        0.00038319        0.00090010
      47         -0.398129        2.000000        0.02190994        0.00426146        0.00367299        0.00856870        0.00108395        0.00075038        0.00040893        0.00065072        0.00040889
      48         -0.397803        2.000000        0.01037562        0.00333956        0.00375992        0.00261201        0.00029542        0.00028964        0.00033490        0.00026198        0.00041267
      49         -0.395861        2.000000        0.00553390        0.00210251        0.00144210        0.00175146        0.00016818        0.00018606        0.00019638        0.00017981        0.00018391
      50         -0.394162        2.000000        0.00488736        0.00126638        0.00292824        0.00139480        0.00017392        0.00012721        0.00015550        0.00014628        0.00011751
      51         -0.388164        2.000000        0.19529603        0.01658513        0.24101061        0.02734867        0.00403884        0.00444595        0.00880020        0.00645806        0.00253739
      52         -0.383511        2.000000        0.21869996        0.03043235        0.22707746        0.02257747        0.00440747        0.00741888        0.01135727        0.00577701        0.00539320
      53         -0.379461        2.000000        0.19671504        0.02277602        0.19994023        0.02691505        0.00479998        0.00530410        0.00983839        0.00600998        0.00313729
      54         -0.377756        2.000000        0.21313966        0.02577498        0.17883024        0.03648932        0.00524657        0.00449147        0.01270905        0.00789150        0.00419440
      55         -0.377149        2.000000        0.07933131        0.00718222        0.10914505        0.00927219        0.00170825        0.00160129        0.00630153        0.00224483        0.00134060
      56         -0.375300        2.000000        0.15273454        0.02873175        0.13617068        0.01746901        0.00237284        0.00572024        0.01089699        0.00286543        0.00493215
      57         -0.369522        2.000000        0.11068356        0.01298003        0.12791240        0.02045141        0.00283825        0.00319795        0.00745264        0.00332919        0.00202978
      58         -0.366459        2.000000        0.04843341        0.00501394        0.03597266        0.01061417        0.00157213        0.00075177        0.00255768        0.00142038        0.00071454
      59         -0.364045        2.000000        0.06762255        0.01078801        0.04904235        0.01305446        0.00181162        0.00158902        0.00342782        0.00205559        0.00138190
      60         -0.363596        2.000000        0.11595797        0.02634415        0.08671224        0.01235409        0.00155337        0.00417516        0.00733856        0.00163114        0.00421406
      61         -0.362374        2.000000        0.08076716        0.00855671        0.06042229        0.01824384        0.00277040        0.00147855        0.00438961        0.00304566        0.00126486
      62         -0.360553        2.000000        0.12320691        0.02498783        0.09038352        0.01588603        0.00261453        0.00380917        0.00714822        0.00318537        0.00356516
      63         -0.358621        2.000000        0.14935836        0.02140167        0.12358311        0.02694646        0.00380338        0.00490995        0.00882970        0.00412786        0.00361908
      64         -0.354530        2.000000        0.10378548        0.00584625        0.18180718        0.00679073        0.00123490        0.00081295        0.00649287        0.00142517        0.00062851
      65         -0.279113        2.000000        0.00296431        0.01270411        0.02750768        0.01575626        0.00026525        0.00047546        0.00161630        0.00058119        0.00059877
      66         -0.276507        2.000000        0.00111785        0.00491953        0.01107937        0.00462432        0.00020689        0.00018271        0.00064280        0.00040193        0.00016330
      67         -0.275725        2.000000        0.00200482        0.01931036        0.02918957        0.00637530        0.00042843        0.00050257        0.00129609        0.00023649        0.00036029
      68         -0.270744        2.000000        0.00830355        0.07079030        0.12219072        0.05880331        0.00211144        0.00084011        0.00487763        0.00066475        0.00348001
      69         -0.270305        2.000000        0.00918634        0.09228910        0.16288756        0.06042096        0.00421135        0.00091882        0.00529049        0.00112916        0.00160368
      70         -0.267322        2.000000        0.00748635        0.05342576        0.18166429        0.11476015        0.00129491        0.00072292        0.00614149        0.00108702        0.00193532
      71         -0.265975        2.000000        0.00572562        0.04908777        0.15117663        0.08298143        0.00083379        0.00084980        0.00556243        0.00086652        0.00185926
      72         -0.264791        2.000000        0.00404141        0.08363353        0.12339037        0.02294749        0.00144913        0.00074007        0.00399273        0.00047172        0.00141010
      73         -0.262658        2.000000        0.00661533        0.02982480        0.09654497        0.04001269        0.00227741        0.00069066        0.00469359        0.00072548        0.00191226
      74         -0.262096        2.000000        0.00434366        0.06892270        0.16127291        0.03926636        0.00103379        0.00080282        0.00721836        0.00065459        0.00167863
      75         -0.259775        2.000000        0.00378160        0.04673420        0.16150356        0.07241156        0.00131818        0.00066617        0.00571919        0.00129375        0.00172783
      76         -0.259352        2.000000        0.00545745        0.03245517        0.14141679        0.07291193        0.00132144        0.00099047        0.00462182        0.00119226        0.00151175
      77         -0.256851        2.000000        0.00369682        0.01425711        0.04057677        0.01342817        0.00113017        0.00036151        0.00293758        0.00023891        0.00060593
      78         -0.255797        2.000000        0.00947825        0.08473498        0.17205098        0.03489134        0.00324677        0.00083691        0.00678333        0.00100635        0.00582771
      79         -0.254461        2.000000        0.00346815        0.03703796        0.07586213        0.01388140        0.00143294        0.00042375        0.00390701        0.00057366        0.00158964
      80         -0.253366        2.000000        0.00694177        0.06735212        0.24484130        0.05605034        0.00397689        0.00162964        0.02123867        0.00185957        0.00321800
      81         -0.253035        2.000000        0.00947659        0.09055677        0.19369323        0.05684443        0.00388217        0.00203459        0.01572254        0.00263883        0.00349761
      82         -0.252655        2.000000        0.00922842        0.04921902        0.12710687        0.02899255        0.00294823        0.00096476        0.00866885        0.00074354        0.00273027
      83         -0.251188        2.000000        0.00662008        0.08036562        0.13680120        0.02390671        0.00337564        0.00051914        0.00654254        0.00140692        0.00330970
      84         -0.250771        2.000000        0.00800833        0.04699046        0.09537413        0.03790483        0.00275372        0.00143116        0.01261168        0.00178681        0.00194262
      85         -0.250029        2.000000        0.00901512        0.04611016        0.11765678        0.04754965        0.00344350        0.00159143        0.00787820        0.00083161        0.00343622
      86         -0.249531        2.000000        0.00750823        0.06078641        0.15004511        0.05657710        0.00337805        0.00137889        0.00919271        0.00157660        0.00323837
      87         -0.248625        2.000000        0.00852227        0.06814556        0.14044358        0.05532205        0.00310384        0.00126962        0.01666336        0.00256842        0.00263237
      88         -0.247553        2.000000        0.00680104        0.05133036        0.15677252        0.04043292        0.00421902        0.00133982        0.00905712        0.00119772        0.00215255
      89         -0.246792        2.000000        0.01060459        0.07856531        0.18040769        0.04030665        0.00323493        0.00152356        0.01594625        0.00192243        0.00352171
      90         -0.246682        2.000000        0.00986631        0.04989254        0.14347882        0.02997093        0.00347440        0.00102271        0.00897575        0.00073029        0.00394807
      91         -0.245577        2.000000        0.00578872        0.02460593        0.17520642        0.05430440        0.00307722        0.00175533        0.02024208        0.00185816        0.00184841
      92         -0.244488        2.000000        0.00783369        0.03503727        0.14586345        0.05912725        0.00368993        0.00184050        0.01658661        0.00255800        0.00157498
      93         -0.244309        2.000000        0.00721707        0.03375739        0.09782466        0.04458708        0.00221325        0.00131601        0.01055258        0.00131441        0.00158409
      94         -0.243461        2.000000        0.00924426        0.04829969        0.11963853        0.02312385        0.00153852        0.00193587        0.01384740        0.00188537        0.00383469
      95         -0.242595        2.000000        0.00968255        0.04093242        0.18390293        0.05904381        0.00441872        0.00120957        0.01175249        0.00261410        0.00243130
      96         -0.242023        2.000000        0.01197683        0.10955695        0.20804408        0.06652965        0.00332334        0.00295165        0.01996692        0.00272516        0.00640121
      97         -0.240492        2.000000        0.00785399        0.04101052        0.16346057        0.04199666        0.00332657        0.00148915        0.01353644        0.00217096        0.00262042
      98         -0.240405        2.000000        0.00702405        0.02534016        0.12770400        0.03577053        0.00158868        0.00123683        0.01465157        0.00128941        0.00308060
      99         -0.239514        2.000000        0.00920105        0.05160264        0.12250339        0.05371461        0.00246318        0.00211285        0.01117135        0.00198471        0.00373610
     100         -0.238624        2.000000        0.01252607        0.04331651        0.22550368        0.14454956        0.00648290        0.00230400        0.01845250        0.00205154        0.00529184
     101         -0.237685        2.000000        0.00505436        0.05282926        0.13436289        0.05337557        0.00170369        0.00229852        0.01243983        0.00161518        0.00239658
     102         -0.236594        2.000000        0.00772500        0.02272225        0.11763089        0.05072211        0.00197769        0.00192390        0.01195951        0.00143237        0.00185226
     103         -0.235996        2.000000        0.01215675        0.06224891        0.13344153        0.08142048        0.00413222        0.00251635        0.02052707        0.00269904        0.00380779
     104         -0.234629        2.000000        0.00909978        0.03388307        0.11795542        0.06033150        0.00337339        0.00185268        0.01319085        0.00127011        0.00260414
     105         -0.234292        2.000000        0.00409721        0.02768900        0.13288102        0.05720520        0.00149149        0.00233853        0.01982962        0.00208015        0.00107255
     106         -0.233623        2.000000        0.00504329        0.06529828        0.12989274        0.09475187        0.00140420        0.00188167        0.01618389        0.00327760        0.00268680
     107         -0.233143        2.000000        0.00899517        0.06916562        0.20120684        0.12314621        0.00189021        0.00367102        0.02804553        0.00333819        0.00476459
     108         -0.231971        2.000000        0.00864140        0.06310433        0.16943514        0.04032044        0.00420821        0.00233767        0.01882289        0.00322076        0.00330963
     109         -0.231503        2.000000        0.01523110        0.06326899        0.19159086        0.07817767        0.00734261        0.00300914        0.01834434        0.00265466        0.00371037
     110         -0.230543        2.000000        0.01258856        0.07319096        0.18561711        0.08532727        0.00567302        0.00266659        0.01642853        0.00309025        0.00402622
     111         -0.229634        2.000000        0.01348577        0.02829397        0.12292341        0.07337580        0.00593350        0.00230681        0.01004640        0.00190492        0.00231640
     112         -0.228950        2.000000        0.01499800        0.08884603        0.18548395        0.07988602        0.00839144        0.00260471        0.02052300        0.00507581        0.00386767
     113         -0.228440        2.000000        0.01107146        0.05808317        0.16810178        0.04965015        0.00350379        0.00208146        0.01492835        0.00303968        0.00632356
     114         -0.227008        2.000000        0.02272417        0.11236303        0.17665816        0.07603543        0.00581815        0.00185676        0.01480288        0.00255728        0.00848888
     115         -0.226120        2.000000        0.01803646        0.09970758        0.16128782        0.04602782        0.00391130        0.00317808        0.01874331        0.00293644        0.00654867
     116         -0.225684        2.000000        0.01726597        0.14946848        0.18800938        0.12029763        0.00460655        0.00485868        0.01876385        0.00362670        0.00746491
     117         -0.224658        2.000000        0.02231887        0.12775642        0.16978877        0.10367024        0.00806385        0.00384131        0.01877974        0.00294259        0.00789911
     118         -0.224250        2.000000        0.02722535        0.09391325        0.12793311        0.13933206        0.01202315        0.00218365        0.00974455        0.00213573        0.00688175
     119         -0.222815        2.000000        0.03125858        0.13043105        0.16733860        0.12768916        0.00949950        0.00234994        0.01376767        0.00292439        0.01112635
     120         -0.221724        2.000000        0.01286397        0.09364899        0.09463600        0.07207236        0.00570480        0.00225569        0.01029136        0.00208562        0.00451591
     121         -0.221276        2.000000        0.00774871        0.06561329        0.08284563        0.05050930        0.00310678        0.00190358        0.00683074        0.00096220        0.00490246
     122         -0.219867        2.000000        0.01376661        0.09654804        0.13122527        0.07360166        0.00407838        0.00279848        0.01346096        0.00337435        0.00529688
     123         -0.219450        2.000000        0.01749031        0.06447034        0.19806094        0.10489259        0.00843785        0.00287719        0.02135278        0.00272946        0.00577273
     124         -0.218444        2.000000        0.02910536        0.13951648        0.23068950        0.12201017        0.00882045        0.00277586        0.01903154        0.00309690        0.01356174
     125         -0.217619        2.000000        0.01236500        0.09931515        0.24564528        0.12934360        0.00533419        0.00303295        0.03132816        0.00688674        0.00676702
     126         -0.215932        2.000000        0.01600072        0.08959652        0.13949362        0.11632934        0.00631413        0.00350387        0.01701515        0.00311925        0.00840185
     127         -0.212770        2.000000        0.03263513        0.08586186        0.22151390        0.19453937        0.01709343        0.00415394        0.02262149        0.00382091        0.00998076
     128         -0.211696        2.000000        0.01439723        0.12790018        0.23020508        0.11323730        0.00817250        0.00523751        0.04117950        0.00562096        0.00647170
     129         -0.209850        2.000000        0.02564986        0.15361347        0.22186853        0.17762237        0.01426510        0.00494265        0.02264853        0.00718336        0.01102138
     130         -0.208448        2.000000        0.01819248        0.09961830        0.21821512        0.10952808        0.00892914        0.00472944        0.02964933        0.00442295        0.00818482
     131         -0.205879        2.000000        0.01801360        0.19962186        0.19769667        0.16601943        0.00880244        0.00708483        0.02240831        0.00727520        0.01661879
     132         -0.204799        2.000000        0.01443538        0.18101027        0.21061104        0.14279133        0.00875104        0.00571486        0.03507210        0.00805920        0.01068113
     133         -0.203198        2.000000        0.02309780        0.22355362        0.21710912        0.11812130        0.01377293        0.00561787        0.02808636        0.00839739        0.01123518
     134         -0.200336        2.000000        0.01786405        0.25091947        0.18795998        0.19434634        0.01390346        0.00951134        0.02081467        0.00995752        0.01163726
     135         -0.199208        2.000000        0.02218159        0.12222250        0.22757929        0.24272207        0.01507177        0.00871409        0.03146942        0.00733370        0.01215431
     136         -0.197033        2.000000        0.01430525        0.22386555        0.21580947        0.19874750        0.01299240        0.01292475        0.02835433        0.00754282        0.01050340
     137         -0.196083        2.000000        0.02024427        0.13226753        0.22551953        0.17395975        0.01081717        0.00710303        0.03803626        0.00591060        0.01290992
     138         -0.195194        2.000000        0.02520317        0.25476267        0.23516395        0.16552406        0.01038352        0.01208142        0.01782477        0.01124597        0.02071196
     139         -0.189300        2.000000        0.00037273        0.00409552        0.00548897        0.00229849        0.00020187        0.00017755        0.00085101        0.00014061        0.00028148
     140         -0.187280        2.000000        0.00056490        0.00333809        0.00932359        0.00371887        0.00025542        0.00022312        0.00147467        0.00015069        0.00040143
     141         -0.185028        2.000000        0.00025219        0.00241253        0.00399869        0.00246525        0.00018676        0.00012529        0.00062357        0.00010754        0.00015125
     142         -0.171038        2.000000        0.00002621        0.00031982        0.00071042        0.00038801        0.00002159        0.00001536        0.00007439        0.00002224        0.00002331
     143         -0.167532        2.000000        0.00003521        0.00067743        0.00048892        0.00137473        0.00003784        0.00002543        0.00003313        0.00005927        0.00003148
     144         -0.164967        2.000000        0.00061405        0.00437358        0.00385213        0.12974433        0.00137643        0.00017666        0.00038198        0.00350016        0.00042817