# Projected DOS for atomic kind Si at iteration step i = 0, E(Fermi) =    -0.093755 a.u.
#     MO Eigenvalue [a.u.]      Occupation                 s                py                pz                px               d-2               d-1                d0               d+1               d+2
       1         -0.558054        2.000000        0.01764006        0.00024747        0.00161887        0.00012384        0.00002142        0.00004205        0.00020233        0.00002780        0.00002489
       2         -0.545933        2.000000        0.64749932        0.00388829        0.02457507        0.00220070        0.00067190        0.00043662        0.03058827        0.00028080        0.00127828
       3         -0.536645        2.000000        0.00777035        0.00362340        0.00094335        0.00112166        0.00009214        0.00019677        0.00012421        0.00008961        0.00030859
       4         -0.535349        2.000000        0.01007715        0.00179758        0.00132288        0.00414787        0.00034954        0.00012731        0.00014681        0.00022558        0.00014409
       5         -0.530670        2.000000        0.01417805        0.00312818        0.00089582        0.00457660        0.00034966        0.00014961        0.00015991        0.00017428        0.00038363
       6         -0.529023        2.000000        0.13119463        0.04439085        0.00257847        0.01651279        0.00202721        0.00201510        0.00130785        0.00072041        0.00561461
       7         -0.527116        2.000000        0.12936590        0.03731365        0.00310103        0.02341886        0.00253371        0.00130648        0.00179317        0.00115713        0.00432169
       8         -0.526772        2.000000        0.28995491        0.09181756        0.00806929        0.03438609        0.00432322        0.00498229        0.00497612        0.00160874        0.01337917
       9         -0.523135        2.000000        0.35177678        0.05390919        0.00707586        0.10698379        0.01272504        0.00217939        0.00533201        0.00564969        0.00646084
      10         -0.521666        2.000000        0.20975736        0.03228770        0.00478168        0.06361762        0.00806392        0.00142032        0.00353167        0.00293522        0.00427503
      11         -0.520447        2.000000        0.41367607        0.05692827        0.00898832        0.12878088        0.01669297        0.00318325        0.00640973        0.00568180        0.00726174
      12         -0.518418        2.000000        0.46784587        0.08748395        0.00850865        0.12492164        0.01571762        0.00432836        0.00851569        0.00560973        0.01081014
      13         -0.515301        2.000000        0.48889108        0.10466588        0.00877292        0.12269130        0.01473811        0.00474459        0.00650627        0.00588211        0.01434281
      14         -0.512794        2.000000        0.49582394        0.17194416        0.00777414        0.06177643        0.00829071        0.00831261        0.00682832        0.00289526        0.02174113
      15         -0.490477        2.000000        0.00286710        0.00212792        0.00064915        0.00101754        0.00025388        0.00031245        0.00018062        0.00018835        0.00021332
      16         -0.488656        2.000000        0.00508798        0.00123623        0.00049921        0.00381098        0.00036576        0.00023211        0.00016149        0.00033919        0.00049127
      17         -0.484268        2.000000        0.00892674        0.00285969        0.00038338        0.00505991        0.00079185        0.00021114        0.00017141        0.00043457        0.00071265
      18         -0.483142        2.000000        0.02575302        0.01047963        0.00068644        0.01201887        0.00206591        0.00078364        0.00021259        0.00090906        0.00209740
      19         -0.482011        2.000000        0.21548499        0.08480963        0.00101673        0.09090732        0.01802012        0.00535776        0.00065927        0.00617407        0.01846362
      20         -0.480283        2.000000        0.12819979        0.04379047        0.00134731        0.05916147        0.01153698        0.00250553        0.00029215        0.00485885        0.01052339
      21         -0.479553        2.000000        0.02198878        0.00778553        0.00054102        0.00996721        0.00176893        0.00080603        0.00016535        0.00086909        0.00204464
      22         -0.478488        2.000000        0.00918023        0.00439834        0.00052715        0.00394967        0.00085189        0.00041131        0.00020641        0.00050211        0.00080465
      23         -0.477717        2.000000        0.13758213        0.04797464        0.00068536        0.06697129        0.01135266        0.00405890        0.00048359        0.00397718        0.01178930
      24         -0.476797        2.000000        0.29160828        0.11702787        0.00147338        0.11224453        0.03109087        0.00854250        0.00051015        0.00825687        0.02501126
      25         -0.475021        2.000000        0.36940570        0.09592621        0.00182850        0.19952505        0.03666258        0.00626937        0.00084689        0.01541571        0.03216818
      26         -0.473337        2.000000        0.39591699        0.16043636        0.00165829        0.13787366        0.04987593        0.01240607        0.00064713        0.01013944        0.03205050
      27         -0.472408        2.000000        0.38567839        0.14239735        0.00126608        0.15057905        0.05015567        0.01061288        0.00111828        0.01230154        0.03119456
      28         -0.470935        2.000000        0.39698807        0.14239680        0.00121792        0.14969697        0.04929037        0.01073307        0.00148605        0.01108539        0.03168613
      29         -0.470281        2.000000        0.38433604        0.20878410        0.00194721        0.06122451        0.01037223        0.01674110        0.00140789        0.00417522        0.08416645
      30         -0.468691        2.000000        0.02663097        0.01243818        0.00038674        0.00684820        0.00181372        0.00105000        0.00017212        0.00062056        0.00399561
      31         -0.467772        2.000000        0.39576792        0.15731250        0.00110644        0.15149423        0.03344422        0.01140392        0.00124468        0.00911282        0.04478243
      32         -0.463895        2.000000        0.40031933        0.11555572        0.00249026        0.16722683        0.05876111        0.00819486        0.00158164        0.01312511        0.03568690
      33         -0.422779        2.000000        0.01326499        0.00706926        0.00467183        0.01261632        0.00039089        0.00081788        0.00117506        0.00088360        0.00036673
      34         -0.419945        2.000000        0.01734358        0.00913009        0.00487741        0.01724368        0.00039522        0.00083682        0.00149045        0.00143398        0.00027861
      35         -0.418125        2.000000        0.03153915        0.04317313        0.00976962        0.00216293        0.00028358        0.00382103        0.00236476        0.00041026        0.00111169
      36         -0.413604        2.000000        0.13283371        0.05365426        0.02489734        0.12212517        0.00514594        0.00660232        0.00724399        0.01235649        0.00256975
      37         -0.412212        2.000000        0.18066075        0.18492554        0.03234792        0.05124634        0.00310496        0.01807553        0.00899029        0.00693740        0.00721154
      38         -0.410903        2.000000        0.08719718        0.06187943        0.01658048        0.05422529        0.00231841        0.00644071        0.00462882        0.00637172        0.00269959
      39         -0.410508        2.000000        0.26297272        0.09520278        0.04501088        0.24570012        0.01057930        0.01143428        0.01286076        0.02643584        0.00549782
      40         -0.409425        2.000000        0.13681636        0.08935456        0.02447140        0.09030255        0.00438641        0.01008143        0.00724299        0.00934667        0.00507675
      41         -0.406676        2.000000        0.10921720        0.06288015        0.02795040        0.04725772        0.00731374        0.00972575        0.00790822        0.00616474        0.01022469
      42         -0.406413        2.000000        0.02105498        0.02150655        0.00402088        0.00546302        0.00070883        0.00264792        0.00118549        0.00098729        0.00094124
      43         -0.403832        2.000000        0.24964107        0.12999812        0.06446707        0.09822963        0.01648075        0.01779873        0.01643483        0.01518922        0.02755031
      44         -0.403531        2.000000        0.21706491        0.08469995        0.04569007        0.12487165        0.02379635        0.01213024        0.01444657        0.01617414        0.01527175
      45         -0.402771        2.000000        0.03395354        0.01469139        0.01098286        0.01607266        0.00319168        0.00275568        0.00272410        0.00260549        0.00318496
      46         -0.402050        2.000000        0.05554854        0.02661558        0.01607798        0.02326254        0.00441598        0.00560527        0.00376878        0.00357489        0.00598570
      47         -0.401117        2.000000        0.27441937        0.11954819        0.05649183        0.12951154        0.03028756        0.01675012        0.01992370        0.01648878        0.02228914
      48         -0.399936        2.000000        0.28449740        0.13542671        0.06207272        0.14449374        0.03189093        0.01661875        0.02009225        0.01953531        0.02203853
      49         -0.398513        2.000000        0.24122894        0.13491043        0.05941809        0.08677407        0.01502931        0.01953913        0.01413876        0.01230013        0.02908201
      50         -0.396790        2.000000        0.28861469        0.12396923        0.07518575        0.14330159        0.03035498        0.01435229        0.02137338        0.02118684        0.02424533
      51         -0.385102        2.000000        0.03244979        0.00665952        0.08259993        0.00796602        0.00171238        0.00276075        0.00767858        0.00336752        0.00225674
      52         -0.380643        2.000000        0.04976715        0.01477799        0.11853136        0.00365141        0.00093818        0.00806964        0.00812216        0.00096787        0.00395161
      53         -0.378862        2.000000        0.07781803        0.00750047        0.20816925        0.01190091        0.00383890        0.00298070        0.01016738        0.00672967        0.00178006
      54         -0.376937        2.000000        0.09860483        0.01832920        0.21660120        0.01737471        0.00456182        0.00911329        0.01246210        0.00881265        0.00444697
      55         -0.375624        2.000000        0.08892273        0.01878121        0.15094098        0.01504754        0.00477502        0.00824918        0.01281378        0.00759203        0.00556751
      56         -0.373982        2.000000        0.11972041        0.01933003        0.21135901        0.03103227        0.00794155        0.00723534        0.01596379        0.01452193        0.00396842
      57         -0.372380        2.000000        0.05729181        0.01514581        0.13549980        0.00448295        0.00132490        0.00674807        0.00820261        0.00286438        0.00376434
      58         -0.366482        2.000000        0.09645175        0.02457344        0.15873600        0.01626453        0.00454506        0.00841798        0.01229495        0.00516666        0.00619956
      59         -0.365374        2.000000        0.13200791        0.02820276        0.17892533        0.03274407        0.00872449        0.01015650        0.01477869        0.00876759        0.00641568
      60         -0.363302        2.000000        0.12161434        0.02703222        0.17068065        0.02899809        0.00624827        0.00826870        0.01340686        0.00971851        0.00678438
      61         -0.362781        2.000000        0.10675845        0.01737566        0.16163256        0.02757182        0.00751571        0.00502865        0.01204196        0.01055369        0.00412184
      62         -0.362521        2.000000        0.12163298        0.03168082        0.15922709        0.02561052        0.00613357        0.00878188        0.01489038        0.00892696        0.00722835
      63         -0.358874        2.000000        0.09459252        0.02519300        0.14089439        0.01821018        0.00420841        0.00811708        0.01012448        0.00567228        0.00582724
      64         -0.352277        2.000000        0.10367151        0.01518417        0.25239063        0.01806085        0.00352589        0.00425634        0.01234177        0.00537246        0.00381786
      65         -0.280234        2.000000        0.00372104        0.08167304        0.39537381        0.18490721        0.00095938        0.00326534        0.02000275        0.00423280        0.00123778
      66         -0.279626        2.000000        0.00441084        0.09082297        0.39484463        0.18987660        0.00225806        0.00405942        0.01917673        0.00585040        0.00257557
      67         -0.276511        2.000000        0.00727376        0.21379796        0.40338241        0.06995573        0.00672739        0.00356877        0.01652521        0.00368454        0.00310475
      68         -0.273503        2.000000        0.01392463        0.08155708        0.31455867        0.12492406        0.01026362        0.00613218        0.01846288        0.00551461        0.01281295
      69         -0.270905        2.000000        0.01266216        0.08939887        0.29555202        0.11276034        0.01033411        0.00527246        0.01138903        0.00339658        0.00898075
      70         -0.269463        2.000000        0.01420204        0.09044107        0.30268325        0.09500436        0.01193173        0.00511782        0.01327954        0.00390123        0.00863910
      71         -0.267394        2.000000        0.01649052        0.11073686        0.30954262        0.16214902        0.00939670        0.00960566        0.01699157        0.00228921        0.01751002
      72         -0.265765        2.000000        0.00683326        0.04534353        0.13667584        0.03478523        0.00295951        0.00403781        0.01077271        0.00223272        0.00621124
      73         -0.264378        2.000000        0.00935093        0.06782021        0.13131892        0.09070593        0.00611896        0.00535847        0.00789386        0.00377934        0.00790298
      74         -0.262764        2.000000        0.01860258        0.08555252        0.32475121        0.13659638        0.01665496        0.00513970        0.01379273        0.00544200        0.01075765
      75         -0.262248        2.000000        0.00816994        0.05430339        0.19367363        0.06338857        0.00681782        0.00491235        0.02438207        0.00256932        0.00513051
      76         -0.261639        2.000000        0.01569846        0.08204848        0.29834086        0.12332404        0.01148930        0.00482580        0.01813545        0.00418209        0.01417152
      77         -0.258819        2.000000        0.00914887        0.13277230        0.24211986        0.18602953        0.01018462        0.00847448        0.04119609        0.00585978        0.00885238
      78         -0.256977        2.000000        0.01300817        0.19576530        0.21732736        0.16510602        0.01071246        0.00687269        0.05321031        0.00838238        0.01029201
      79         -0.256133        2.000000        0.01435711        0.10334074        0.22359332        0.12811613        0.01308450        0.00387178        0.03315971        0.00514209        0.00718095
      80         -0.255635        2.000000        0.00876052        0.07753151        0.17708080        0.07022001        0.00312804        0.00585805        0.03146992        0.00213475        0.00803958
      81         -0.254570        2.000000        0.02416004        0.11624835        0.18172832        0.11545862        0.01464708        0.00367077        0.03185687        0.00316576        0.01108506
      82         -0.253471        2.000000        0.00586841        0.15667857        0.23176818        0.09565888        0.00636783        0.00461299        0.04954007        0.01160248        0.00388981
      83         -0.252091        2.000000        0.01350214        0.17725911        0.19707040        0.11730087        0.01011837        0.00243928        0.04284603        0.01054418        0.00930507
      84         -0.251183        2.000000        0.01697675        0.08272568        0.22488350        0.10467098        0.01250919        0.00487650        0.04132173        0.00405959        0.00810277
      85         -0.250295        2.000000        0.00866476        0.10279921        0.18417507        0.11771071        0.00981294        0.00919089        0.04081756        0.00541029        0.00789423
      86         -0.250109        2.000000        0.01222672        0.10252657        0.17466098        0.10651639        0.01078749        0.00433497        0.03978616        0.00631710        0.00537591
      87         -0.249306        2.000000        0.01247665        0.08534348        0.11606202        0.08753495        0.00759926        0.00628144        0.01530004        0.00265611        0.01003422
      88         -0.248483        2.000000        0.01316124        0.17473057        0.16301782        0.13808050        0.01506060        0.00529922        0.03064822        0.00818010        0.00863188
      89         -0.247653        2.000000        0.01396120        0.05979098        0.09622883        0.08107510        0.01345086        0.00224161        0.01791642        0.00327807        0.00571921
      90         -0.247072        2.000000        0.01665685        0.07629448        0.19209762        0.13365027        0.01229236        0.00473087        0.03747429        0.00560614        0.00794754
      91         -0.246112        2.000000        0.02218336        0.15505767        0.20166272        0.03097391        0.00286944        0.00260687        0.04517540        0.00352938        0.02436074
      92         -0.245769        2.000000        0.02181568        0.14236961        0.18027629        0.13838232        0.01366877        0.00484558        0.03552353        0.00499167        0.01911401
      93         -0.244487        2.000000        0.01621214        0.11896983        0.14779058        0.07688356        0.01207024        0.00506135        0.02560849        0.00588562        0.01028963
      94         -0.243594        2.000000        0.01240859        0.06601925        0.23774859        0.08995402        0.01284230        0.00568940        0.05156705        0.00908973        0.00839843
      95         -0.243288        2.000000        0.02141023        0.15529203        0.15019677        0.09143789        0.00847305        0.00539257        0.02305526        0.00239003        0.02191978
      96         -0.242458        2.000000        0.01901467        0.09566559        0.17968721        0.10886667        0.01257304        0.00839341        0.03287844        0.00357066        0.01249624
      97         -0.242019        2.000000        0.01248656        0.07751078        0.12778364        0.07232000        0.00847742        0.00223876        0.02303193        0.00275872        0.01326791
      98         -0.240583        2.000000        0.02306758        0.10177740        0.15056743        0.13417520        0.01650871        0.00393236        0.02912424        0.00276081        0.01472727
      99         -0.239345        2.000000        0.00619158        0.05545231        0.18618938        0.06078671        0.00533508        0.00734691        0.05114845        0.00351227        0.00506224
     100         -0.238454        2.000000        0.01632846        0.07511323        0.18895269        0.10899953        0.01577329        0.00411898        0.05385777        0.00474698        0.00772367
     101         -0.238049        2.000000        0.00966596        0.07432791        0.18043993        0.09432985        0.00886471        0.00549076        0.05033322        0.00570269        0.00831856
     102         -0.237678        2.000000        0.01493711        0.09897132        0.12733192        0.08886498        0.01256112        0.00408642        0.02528164        0.00315079        0.01059220
     103         -0.236868        2.000000        0.00921219        0.06992442        0.16806070        0.05597662        0.00364016        0.00355170        0.05439785        0.00259905        0.01050685
     104         -0.235137        2.000000        0.00642111        0.06165409        0.10043831        0.08478294        0.00604231        0.00399192        0.03477778        0.00419950        0.00745498
     105         -0.234091        2.000000        0.01469641        0.06591171        0.13227501        0.05407365        0.00752674        0.00424106        0.03207822        0.00314655        0.01236043
     106         -0.233472        2.000000        0.01503985        0.13943000        0.14346691        0.10925206        0.01157200        0.00615565        0.02150346        0.00562578        0.01757835
     107         -0.232649        2.000000        0.01298404        0.10387217        0.13726720        0.12053923        0.01137670        0.00779557        0.02181826        0.00668029        0.01338522
     108         -0.231818        2.000000        0.00717086        0.04348118        0.13119916        0.08797704        0.00666357        0.00603715        0.03954387        0.00357116        0.00878203
     109         -0.231446        2.000000        0.01169416        0.05648769        0.18756728        0.07127912        0.01393825        0.00518806        0.04749812        0.00714788        0.00465195
     110         -0.231019        2.000000        0.01285340        0.10638185        0.10510523        0.03137455        0.00451812        0.00248208        0.01508656        0.00283634        0.01598280
     111         -0.229459        2.000000        0.00603687        0.02873051        0.12770994        0.05257621        0.00548314        0.00571039        0.03194568        0.00262805        0.00539178
     112         -0.228158        2.000000        0.00757645        0.08270025        0.11000622        0.06248918        0.00703836        0.00551647        0.01937142        0.00572265        0.00844349
     113         -0.227780        2.000000        0.01018701        0.12383614        0.14456519        0.06828294        0.01734893        0.00488084        0.02632357        0.00788831        0.00694074
     114         -0.226332        2.000000        0.00722612        0.06977179        0.09770704        0.15564986        0.00811584        0.00844222        0.01459719        0.00509158        0.01396878
     115         -0.225601        2.000000        0.00583168        0.04865134        0.09015687        0.08001314        0.00651394        0.00408281        0.01794923        0.00521916        0.00825111
     116         -0.224920        2.000000        0.00677301        0.10104834        0.09520489        0.08364743        0.01156739        0.00437882        0.01413887        0.00709173        0.00946984
     117         -0.224749        2.000000        0.00682166        0.05916523        0.08826133        0.06818633        0.00744288        0.00286358        0.02579985        0.00348142        0.00802570
     118         -0.223719        2.000000        0.00816244        0.19188334        0.12750220        0.11446764        0.01848119        0.00668132        0.01836971        0.01060931        0.01244525
     119         -0.222951        2.000000        0.00548527        0.04962682        0.11991560        0.06362709        0.00767071        0.00513272        0.02386386        0.00404024        0.00682078
     120         -0.222207        2.000000        0.00276161        0.04377767        0.08778568        0.03848823        0.00528691        0.00367905        0.01715436        0.00343533        0.00381124
     121         -0.221036        2.000000        0.00648481        0.07323907        0.08173795        0.05176669        0.01000510        0.00394995        0.01372300        0.00470153        0.00591855
     122         -0.220117        2.000000        0.00300115        0.02928977        0.06955795        0.04047226        0.00259401        0.00364231        0.02191547        0.00218569        0.00450509
     123         -0.219488        2.000000        0.00428080        0.02081650        0.06213881        0.03142887        0.00403515        0.00285411        0.01651178        0.00171723        0.00307546
     124         -0.218585        2.000000        0.00755212        0.06934838        0.13125549        0.04762142        0.01198136        0.00402925        0.02878125        0.00593911        0.00584356
     125         -0.215067        2.000000        0.00422455        0.03607920        0.08619283        0.02404274        0.00526643        0.00272857        0.02012593        0.00309551        0.00368103
     126         -0.213717        2.000000        0.00223611        0.02803758        0.08902134        0.01640053        0.00297165        0.00317934        0.02264592        0.00343627        0.00334218
     127         -0.213123        2.000000        0.00552186        0.03207101        0.08539495        0.03261900        0.00522140        0.00261932        0.02150910        0.00277286        0.00512467
     128         -0.212216        2.000000        0.00288639        0.03610359        0.07917682        0.01936582        0.00552132        0.00258258        0.01839615        0.00291031        0.00159584
     129         -0.208697        2.000000        0.00215173        0.01687490        0.07499395        0.01782626        0.00233195        0.00229417        0.02033465        0.00255448        0.00212209
     130         -0.208145        2.000000        0.00438916        0.02957186        0.08226295        0.03153828        0.00685830        0.00233150        0.01870645        0.00377953        0.00283546
     131         -0.206893        2.000000        0.00284567        0.03386450        0.05802462        0.01948368        0.00304905        0.00299360        0.01396802        0.00276451        0.00314683
     132         -0.203883        2.000000        0.00036600        0.01063464        0.02432569        0.00526594        0.00062961        0.00096871        0.00386815        0.00082643        0.00133753
     133         -0.203390        2.000000        0.00099039        0.02113316        0.04077250        0.02878642        0.00191652        0.00201084        0.00989156        0.00139319        0.00183835
     134         -0.201649        2.000000        0.00059641        0.00800261        0.02789710        0.01281770        0.00136651        0.00134426        0.00675155        0.00064455        0.00105225
     135         -0.199767        2.000000        0.00170934        0.01448193        0.05539593        0.02278326        0.00235040        0.00125841        0.01837510        0.00283091        0.00079607
     136         -0.198232        2.000000        0.00356394        0.01517973        0.09273457        0.01685704        0.00277412        0.00225693        0.03226053        0.00216984        0.00204957
     137         -0.195448        2.000000        0.00060740        0.03708275        0.01717631        0.02743223        0.00125196        0.00158301        0.00348922        0.00129843        0.00122533
     138         -0.195129        2.000000        0.00060552        0.04745159        0.01340558        0.11319163        0.00254858        0.00208842        0.00247188        0.00422688        0.00139450
     139         -0.193923        2.000000        0.00122483        0.47016235        0.02826400        0.22163868        0.00477856        0.01471564        0.00463042        0.00911569        0.01013724
     140         -0.191495        2.000000        0.00185746        0.11932494        0.02777718        0.67386295        0.01427823        0.00564472        0.00620594        0.02169013        0.00434906
     141         -0.188598        2.000000        0.00212077        0.60813468        0.02786200        0.23399243        0.00650590        0.01920857        0.00579889        0.01183632        0.01072297
     142         -0.176798        2.000000        0.00208245        0.06834981        0.02114533        0.73988120        0.07021719        0.00351188        0.00460936        0.02317507        0.00832222
     143         -0.170984        2.000000        0.00095675        0.52312927        0.01439798        0.30003616        0.02988609        0.01563968        0.00209375        0.01018319        0.05219927
     144         -0.169855        2.000000        0.00122737        0.61254802        0.02043885        0.19764267        0.02055487        0.01577259        0.00470715        0.00754201        0.06247545