# Projected DOS for atomic kind H at iteration step i = 0, E(Fermi) =    -0.095688 a.u.
#     MO Eigenvalue [a.u.]      Occupation                 s                py                pz                px
       1         -0.559136        2.000000        0.11093710        0.00146797        0.08082466        0.00107494
       2         -0.541990        2.000000        0.15043975        0.00082649        0.11425040        0.00036424
       3         -0.538046        2.000000        0.10082660        0.00541148        0.07288446        0.00723224
       4         -0.535583        2.000000        0.10388162        0.00762677        0.07309941        0.00483975
       5         -0.531030        2.000000        0.10279684        0.00395693        0.07281609        0.00905659
       6         -0.529611        2.000000        0.10673655        0.00708407        0.07203607        0.00509273
       7         -0.527149        2.000000        0.10130872        0.01149692        0.06908758        0.00410352
       8         -0.522278        2.000000        0.11243744        0.00394431        0.06785908        0.01110096
       9         -0.521497        2.000000        0.10828908        0.00743558        0.08497271        0.00477740
      10         -0.517869        2.000000        0.11419644        0.00731179        0.08252734        0.00503397
      11         -0.516155        2.000000        0.11423545        0.00395424        0.08297368        0.00831036
      12         -0.514936        2.000000        0.11317228        0.00547630        0.08133014        0.00722046
      13         -0.512219        2.000000        0.11595510        0.00616857        0.07919177        0.00691551
      14         -0.509500        2.000000        0.11804964        0.00966572        0.07692056        0.00412708
      15         -0.491857        2.000000        0.10769022        0.00992890        0.06072072        0.00567223
      16         -0.487502        2.000000        0.11216267        0.00617954        0.05899006        0.01185634
      17         -0.486786        2.000000        0.11423271        0.00672437        0.05648837        0.01247684
      18         -0.483671        2.000000        0.10967310        0.00981064        0.05701025        0.00726340
      19         -0.481887        2.000000        0.11447265        0.00938533        0.05743547        0.00836439
      20         -0.480969        2.000000        0.12104044        0.00650654        0.06209552        0.00425083
      21         -0.480006        2.000000        0.11464728        0.00748212        0.05755008        0.00912735
      22         -0.476389        2.000000        0.11415417        0.00863379        0.05585276        0.00698767
      23         -0.475241        2.000000        0.11245373        0.00877685        0.06028316        0.00643365
      24         -0.472962        2.000000        0.11196206        0.00839474        0.05653209        0.00705854
      25         -0.471322        2.000000        0.12044820        0.00614849        0.05409602        0.00911837
      26         -0.470560        2.000000        0.11628717        0.00668628        0.06168697        0.00734639
      27         -0.469451        2.000000        0.11567544        0.01006428        0.05545736        0.00403609
      28         -0.468990        2.000000        0.11811405        0.00870124        0.05362312        0.00540278
      29         -0.467896        2.000000        0.11861832        0.00376498        0.05461968        0.00819359
      30         -0.465342        2.000000        0.11836717        0.00489118        0.05446919        0.00893079
      31         -0.464545        2.000000        0.11804781        0.00941802        0.05369295        0.00399775
      32         -0.463132        2.000000        0.12019310        0.00543215        0.05433765        0.00836463
      33         -0.423857        2.000000        0.16962640        0.00422793        0.04119789        0.01622811
      34         -0.421453        2.000000        0.17499531        0.00580135        0.04186145        0.01102809
      35         -0.419171        2.000000        0.18503807        0.01683231        0.03552191        0.00428196
      36         -0.412287        2.000000        0.19435929        0.00640661        0.04083224        0.00592793
      37         -0.410635        2.000000        0.17593891        0.00686572        0.03400317        0.00684751
      38         -0.410275        2.000000        0.17890315        0.00756961        0.03623964        0.01056788
      39         -0.408607        2.000000        0.19007164        0.00644800        0.03717465        0.00644414
      40         -0.407927        2.000000        0.17516956        0.00850648        0.03811367        0.00412163
      41         -0.407463        2.000000        0.18402760        0.00500061        0.03926692        0.00737797
      42         -0.406803        2.000000        0.17970199        0.00577524        0.04033209        0.00516455
      43         -0.405877        2.000000        0.18977029        0.00532789        0.04397047        0.00620896
      44         -0.403980        2.000000        0.19363869        0.00724899        0.03827619        0.00360079
      45         -0.401295        2.000000        0.18768339        0.00535107        0.04204024        0.00600792
      46         -0.399338        2.000000        0.19128636        0.00631887        0.04017537        0.00588502
      47         -0.398143        2.000000        0.19137036        0.00560707        0.03606240        0.00633346
      48         -0.397548        2.000000        0.18891450        0.00529892        0.03849205        0.00522284
      49         -0.395171        2.000000        0.19228554        0.00501252        0.03585096        0.00508516
      50         -0.393033        2.000000        0.18895980        0.00513323        0.03710218        0.00406686
      51         -0.388484        2.000000        0.30843069        0.00395062        0.02359915        0.00356485
      52         -0.381398        2.000000        0.31136968        0.00474321        0.02063945        0.00280007
      53         -0.380459        2.000000        0.31945787        0.00175493        0.02177767        0.00401070
      54         -0.377395        2.000000        0.30900362        0.00466823        0.02418857        0.00390731
      55         -0.375809        2.000000        0.31753169        0.00192800        0.01673068        0.00353248
      56         -0.374264        2.000000        0.31436369        0.00541130        0.01693447        0.00148454
      57         -0.368678        2.000000        0.31180393        0.00226725        0.01856225        0.00398409
      58         -0.366097        2.000000        0.29761189        0.00220938        0.04020858        0.00324445
      59         -0.363664        2.000000        0.29801902        0.00230169        0.04128877        0.00242937
      60         -0.363062        2.000000        0.29283434        0.00238999        0.04538941        0.00272559
      61         -0.360853        2.000000        0.29958888        0.00237280        0.04378933        0.00203714
      62         -0.360646        2.000000        0.29549982        0.00298760        0.04473022        0.00281902
      63         -0.357411        2.000000        0.29322131        0.00214928        0.04460895        0.00189757
      64         -0.354162        2.000000        0.31897481        0.00112797        0.05046238        0.00136822
      65         -0.278468        2.000000        0.22801187        0.01103168        0.00221585        0.02706885
      66         -0.277477        2.000000        0.23110785        0.00900816        0.00094062        0.02546713
      67         -0.274556        2.000000        0.22427221        0.03292543        0.00169308        0.00457704
      68         -0.270873        2.000000        0.20598512        0.01812567        0.00564971        0.02494534
      69         -0.270167        2.000000        0.21347044        0.02512030        0.00420278        0.01962466
      70         -0.267565        2.000000        0.21200359        0.01224779        0.00372698        0.02483231
      71         -0.266528        2.000000        0.22176636        0.01138112        0.00327194        0.02425566
      72         -0.264495        2.000000        0.20908431        0.02290830        0.00361999        0.01291145
      73         -0.262651        2.000000        0.20964255        0.01436062        0.00480977        0.02189077
      74         -0.261691        2.000000        0.22063217        0.02051730        0.00507973        0.01436947
      75         -0.259757        2.000000        0.20546168        0.01951086        0.00393567        0.01870323
      76         -0.259451        2.000000        0.21401415        0.01086898        0.00343391        0.02449922
      77         -0.257837        2.000000        0.23698830        0.00979939        0.00461337        0.01516897
      78         -0.254824        2.000000        0.24620697        0.01943278        0.00598510        0.00904883
      79         -0.254213        2.000000        0.22333809        0.01188769        0.00490754        0.01803910
      80         -0.253766        2.000000        0.23832043        0.01993833        0.00382022        0.00963697
      81         -0.253055        2.000000        0.27724854        0.01348461        0.00707580        0.01314305
      82         -0.252030        2.000000        0.25824889        0.01344783        0.00806386        0.01074738
      83         -0.251367        2.000000        0.26198094        0.01186247        0.00551914        0.01261542
      84         -0.250810        2.000000        0.25076690        0.01690766        0.00530797        0.01234322
      85         -0.250546        2.000000        0.23008048        0.01692433        0.00765460        0.01095613
      86         -0.249965        2.000000        0.25192411        0.01341733        0.00760545        0.01511522
      87         -0.248690        2.000000        0.26721709        0.00949009        0.00809979        0.01769223
      88         -0.247815        2.000000        0.22126898        0.01866244        0.00548488        0.01254441
      89         -0.247119        2.000000        0.23581406        0.01154186        0.00655400        0.01810763
      90         -0.246181        2.000000        0.26897684        0.00978692        0.01038753        0.01329083
      91         -0.245460        2.000000        0.25679112        0.01194022        0.01177452        0.01733480
      92         -0.244686        2.000000        0.24405664        0.01176272        0.01220753        0.01597169
      93         -0.244109        2.000000        0.18804012        0.02493840        0.00784976        0.00834622
      94         -0.242891        2.000000        0.21491412        0.02136476        0.00785667        0.01233482
      95         -0.242170        2.000000        0.22276089        0.01288694        0.00650927        0.01638145
      96         -0.241865        2.000000        0.22513174        0.01464608        0.00702606        0.01931025
      97         -0.241204        2.000000        0.22677748        0.01224518        0.00726403        0.01665644
      98         -0.240517        2.000000        0.27912220        0.01278161        0.01146239        0.00972595
      99         -0.239548        2.000000        0.19983301        0.01652914        0.00809969        0.01428319
     100         -0.238312        2.000000        0.23647647        0.01153971        0.00949454        0.02206898
     101         -0.237733        2.000000        0.17048293        0.01593190        0.00563314        0.01828500
     102         -0.236853        2.000000        0.22545404        0.01560075        0.00817249        0.01054987
     103         -0.236121        2.000000        0.25697092        0.01114760        0.00963622        0.01286278
     104         -0.234973        2.000000        0.24929500        0.01059125        0.00733659        0.01307587
     105         -0.234300        2.000000        0.21770928        0.00891307        0.00707866        0.01759140
     106         -0.233459        2.000000        0.19792872        0.01884533        0.00949083        0.01157622
     107         -0.232386        2.000000        0.25213333        0.01296662        0.00687232        0.01209330
     108         -0.231694        2.000000        0.28509121        0.00986763        0.00775609        0.00940920
     109         -0.231393        2.000000        0.22834853        0.01163604        0.00722002        0.01618480
     110         -0.230796        2.000000        0.23657792        0.01322489        0.00708815        0.01692498
     111         -0.229537        2.000000        0.22339483        0.01340413        0.00719330        0.01551313
     112         -0.229123        2.000000        0.21212022        0.01520802        0.00654706        0.01518447
     113         -0.227577        2.000000        0.26456752        0.01070767        0.00525640        0.01281433
     114         -0.226808        2.000000        0.19024619        0.01714702        0.00779857        0.01399857
     115         -0.226086        2.000000        0.21684227        0.01965624        0.00690063        0.00951472
     116         -0.225165        2.000000        0.23998277        0.01259594        0.00841671        0.01400030
     117         -0.224589        2.000000        0.18083224        0.01298002        0.00722839        0.01787820
     118         -0.223908        2.000000        0.16358242        0.01983421        0.00766534        0.01760079
     119         -0.222164        2.000000        0.19268078        0.01848799        0.00827021        0.01737834
     120         -0.221684        2.000000        0.17876683        0.01708145        0.00592826        0.01362837
     121         -0.220507        2.000000        0.18836035        0.01638352        0.00592996        0.01396239
     122         -0.219695        2.000000        0.21924389        0.01451780        0.00509996        0.01268378
     123         -0.219070        2.000000        0.18342240        0.01616140        0.00542693        0.01667685
     124         -0.218031        2.000000        0.21969282        0.01738440        0.00662789        0.01122832
     125         -0.217439        2.000000        0.23083565        0.01158055        0.00681730        0.01626447
     126         -0.214945        2.000000        0.23204835        0.01492569        0.00671901        0.01173914
     127         -0.212703        2.000000        0.22267961        0.00998895        0.00780639        0.02055149
     128         -0.211691        2.000000        0.26630551        0.01338144        0.00861786        0.01164497
     129         -0.209401        2.000000        0.20991552        0.01237371        0.00693065        0.01733236
     130         -0.208277        2.000000        0.29690961        0.00969576        0.00823316        0.01292796
     131         -0.205349        2.000000        0.18938543        0.02112134        0.00769737        0.01239446
     132         -0.204428        2.000000        0.25503359        0.01270582        0.00971155        0.01078393
     133         -0.202242        2.000000        0.24984820        0.01681636        0.01207626        0.01050294
     134         -0.199443        2.000000        0.15784125        0.02082573        0.00814128        0.01980085
     135         -0.198647        2.000000        0.18610992        0.01585540        0.01156783        0.01910640
     136         -0.197107        2.000000        0.22777162        0.01392772        0.01289059        0.01740980
     137         -0.196106        2.000000        0.16844325        0.02027312        0.01181840        0.01633819
     138         -0.195269        2.000000        0.17279099        0.02373137        0.01036029        0.01564217
     139         -0.190053        2.000000        0.01224221        0.02559014        0.00131657        0.01630583
     140         -0.188593        2.000000        0.02534969        0.00736262        0.00184467        0.03407889
     141         -0.185685        2.000000        0.00882192        0.03289550        0.00124389        0.01068291
     142         -0.172790        2.000000        0.00217883        0.00380710        0.00072831        0.03543195
     143         -0.168363        2.000000        0.00288027        0.02648137        0.00108100        0.01481860
     144         -0.165731        2.000000        0.00516698        0.02201990        0.00172187        0.02041305
     145         -0.164845        2.000000        0.00255006        0.03353446        0.00084164        0.00971313
     146         -0.164391        2.000000        0.00528315        0.03176178        0.00127638        0.00950987
     147         -0.163925        2.000000        0.00745118        0.00333564        0.00201330        0.04865473
     148         -0.159830        2.000000        0.00858653        0.03785375        0.00342628        0.01337121
     149         -0.159450        2.000000        0.00242040        0.01261773        0.00092588        0.03113085
     150         -0.156702        2.000000        0.01320343        0.03838008        0.00474051        0.01304014
     151         -0.141677        2.000000        0.00237168        0.00976502        0.00164742        0.04106894
     152         -0.137543        2.000000        0.00460069        0.03084126        0.00238887        0.01879820
     153         -0.136224        2.000000        0.00454564        0.01811962        0.00211675        0.03136461
     154         -0.135640        2.000000        0.00132029        0.00136790        0.00053611        0.03777431
     155         -0.133431        2.000000        0.00498008        0.03351719        0.00217470        0.01594507
     156         -0.132056        2.000000        0.00203418        0.03914869        0.00103866        0.00119186
     157         -0.130090        2.000000        0.00295877        0.02066576        0.00217844        0.02907125
     158         -0.127901        2.000000        0.00461922        0.03795991        0.00205014        0.01432859
     159         -0.098942        2.000000        0.00299886        0.00118335        0.00122030        0.04723476
     160         -0.095688        2.000000        0.00441171        0.04611897        0.00094030        0.00143237
     161         -0.023008        0.000000        0.02462702        0.00224073        0.02350187        0.00202282
     162         -0.018062        0.000000        0.01621138        0.00294885        0.00732273        0.00250037
     163         -0.014844        0.000000        0.00527896        0.01116525        0.01837259        0.00953636
     164         -0.013143        0.000000        0.00540911        0.01226486        0.01754270        0.01152647
     165         -0.010117        0.000000        0.00464190        0.00968526        0.01661006        0.01515523
     166         -0.002899        0.000000        0.01109386        0.02160536        0.01666664        0.01332116
     167         -0.001001        0.000000        0.01187077        0.01986336        0.01644809        0.01820511
     168          0.000054        0.000000        0.01305888        0.02045999        0.01486478        0.01460745
     169          0.001938        0.000000        0.01515975        0.01190727        0.01763061        0.02573848
     170          0.002706        0.000000        0.01460245        0.01943160        0.01500295        0.02441784
     171          0.004619        0.000000        0.01336343        0.01462953        0.01550548        0.02273701
     172          0.005783        0.000000        0.01380926        0.01340841        0.02261885        0.02449297
     173          0.007800        0.000000        0.01465900        0.02474565        0.01858385        0.01504015
     174          0.009686        0.000000        0.01295213        0.02560528        0.01750558        0.01181315
     175          0.016976        0.000000        0.01023430        0.01934409        0.02198761        0.02624673
     176          0.022442        0.000000        0.01042405        0.02699804        0.01963257        0.02996497
     177          0.022955        0.000000        0.01025435        0.04025696        0.02326694        0.00985619
     178          0.026361        0.000000        0.00969737        0.02001432        0.02177815        0.02832727
     179          0.028239        0.000000        0.01145482        0.02319606        0.02329759        0.03463797
     180          0.031980        0.000000        0.01787209        0.03169727        0.03177788        0.01806250
     181          0.048586        0.000000        0.05791607        0.05449257        0.05255920        0.11514108
     182          0.049061        0.000000        0.04769168        0.08735752        0.05659641        0.07578184
     183          0.053824        0.000000        0.03450512        0.09091183        0.03718190        0.02848288
     184          0.056124        0.000000        0.02290608        0.03264096        0.02032837        0.05940818
     185          0.057494        0.000000        0.06663685        0.08988204        0.06871680        0.10977521
     186          0.062231        0.000000        0.07647239        0.08062520        0.06753211        0.08786125
     187          0.067548        0.000000        0.07545863        0.09275596        0.07251576        0.07076338
     188          0.069941        0.000000        0.07716969        0.11045780        0.06278907        0.06897793
     189          0.071694        0.000000        0.06153305        0.06636287        0.05183028        0.08989948
     190          0.074251        0.000000        0.06564426        0.06387635        0.06443300        0.11397006
     191          0.075863        0.000000        0.06805368        0.07690482        0.05229977        0.08566211
     192          0.076606        0.000000        0.05462059        0.07044486        0.05541484        0.08711501
     193          0.081381        0.000000        0.06174728        0.13716029        0.05433299        0.04983109
     194          0.082507        0.000000        0.06470505        0.07457390        0.05883244        0.10413648
     195          0.082750        0.000000        0.05694398        0.07123529        0.06643358        0.08164158
     196          0.084392        0.000000        0.06174070        0.08360775        0.06760210        0.06960399
     197          0.085884        0.000000        0.04896755        0.13099608        0.07846113        0.05110405
     198          0.088089        0.000000        0.04307993        0.09396541        0.06445575        0.06295027
     199          0.090343        0.000000        0.05533192        0.06653811        0.04218438        0.05496814
     200          0.091853        0.000000        0.04427373        0.07499940        0.05022588        0.07464886
     201          0.094091        0.000000        0.08478279        0.06879131        0.05252515        0.05001491
     202          0.096135        0.000000        0.04567994        0.05223896        0.03791345        0.04977413
     203          0.096832        0.000000        0.07403237        0.06301543        0.03841635        0.06852943
     204          0.099310        0.000000        0.08874502        0.05774904        0.04586431        0.05731923
     205          0.100021        0.000000        0.07405569        0.04117427        0.05602999        0.09056112
     206          0.101388        0.000000        0.07113297        0.08360981        0.04473290        0.05868498
     207          0.101759        0.000000        0.08262584        0.07172781        0.04999013        0.05147561
     208          0.102741        0.000000        0.09199647        0.05796798        0.05701441        0.07093295
     209          0.102825        0.000000        0.08522545        0.04783406        0.05922933        0.07305771
     210          0.104826        0.000000        0.09191160        0.05167057        0.05653439        0.07659171
