# Projected DOS for atomic kind Si at iteration step i = 0, E(Fermi) =    -0.094008 a.u.
#     MO Eigenvalue [a.u.]      Occupation                 s                py                pz                px               d-2               d-1                d0               d+1               d+2
       1         -0.557984        2.000000        0.01554097        0.00033759        0.00158601        0.00016891        0.00002560        0.00004404        0.00016424        0.00002767        0.00002340
       2         -0.544306        2.000000        0.65031288        0.00404161        0.02574991        0.00228330        0.00080689        0.00050207        0.03083356        0.00026403        0.00112922
       3         -0.537375        2.000000        0.00918964        0.00198852        0.00119712        0.00346123        0.00028594        0.00012234        0.00013223        0.00019992        0.00013205
       4         -0.534427        2.000000        0.00666101        0.00339821        0.00103750        0.00073005        0.00005299        0.00019222        0.00012146        0.00005909        0.00031191
       5         -0.530410        2.000000        0.00865636        0.00135271        0.00084533        0.00358811        0.00027067        0.00007970        0.00013533        0.00016197        0.00013424
       6         -0.529075        2.000000        0.03903597        0.01116350        0.00117061        0.00815579        0.00088106        0.00057941        0.00025628        0.00032684        0.00133724
       7         -0.526918        2.000000        0.06199383        0.02223507        0.00171450        0.00692500        0.00085426        0.00077724        0.00079345        0.00036076        0.00222203
       8         -0.525334        2.000000        0.41845994        0.12226108        0.01155765        0.06043991        0.00769567        0.00673612        0.00693707        0.00274192        0.01669276
       9         -0.521605        2.000000        0.07135916        0.01205572        0.00141103        0.02268787        0.00247866        0.00046538        0.00075944        0.00099882        0.00125270
      10         -0.519348        2.000000        0.47025178        0.08716071        0.01046816        0.12525292        0.01548470        0.00354464        0.00790252        0.00673245        0.01104892
      11         -0.518541        2.000000        0.49441339        0.08757991        0.01165501        0.13459299        0.01710816        0.00471870        0.00731359        0.00568008        0.01131362
      12         -0.518039        2.000000        0.45416812        0.06572992        0.00880811        0.14020825        0.01694638        0.00332430        0.00815963        0.00652359        0.00793986
      13         -0.513782        2.000000        0.49413299        0.09847370        0.00899222        0.12955666        0.01562547        0.00428027        0.00664947        0.00595647        0.01386477
      14         -0.511015        2.000000        0.49911244        0.17447459        0.00848662        0.05990363        0.00773558        0.00851932        0.00712277        0.00298084        0.02103116
      15         -0.491131        2.000000        0.00211853        0.00163531        0.00058176        0.00081589        0.00018660        0.00026121        0.00015312        0.00016209        0.00015694
      16         -0.487534        2.000000        0.00445269        0.00101533        0.00054807        0.00342730        0.00033072        0.00020817        0.00018187        0.00033250        0.00041781
      17         -0.484523        2.000000        0.00653228        0.00198656        0.00040464        0.00445961        0.00056601        0.00021027        0.00017911        0.00033426        0.00052552
      18         -0.483287        2.000000        0.00716583        0.00299322        0.00034112        0.00361900        0.00056917        0.00028530        0.00013082        0.00032378        0.00058948
      19         -0.481418        2.000000        0.03552908        0.01598556        0.00058521        0.01384846        0.00305430        0.00100197        0.00032231        0.00095982        0.00295540
      20         -0.481046        2.000000        0.02009706        0.00902613        0.00051198        0.00802403        0.00159985        0.00088318        0.00022770        0.00055707        0.00188151
      21         -0.478727        2.000000        0.23841693        0.07713213        0.00142253        0.11463227        0.02243002        0.00505797        0.00059551        0.00880284        0.01956881
      22         -0.478464        2.000000        0.10746673        0.04082120        0.00097338        0.04715106        0.00949073        0.00274599        0.00031153        0.00301418        0.00871447
      23         -0.476515        2.000000        0.14847313        0.05644184        0.00092475        0.06806933        0.01218318        0.00466964        0.00032624        0.00447337        0.01196122
      24         -0.475401        2.000000        0.25162209        0.10965997        0.00155816        0.09440176        0.02038816        0.00870947        0.00029454        0.00667491        0.02269462
      25         -0.472606        2.000000        0.38668114        0.17479762        0.00148488        0.12432441        0.03396529        0.01420150        0.00076873        0.00974136        0.03889160
      26         -0.471662        2.000000        0.39482581        0.15922703        0.00152739        0.15461575        0.03433403        0.01086742        0.00073224        0.01109502        0.03971027
      27         -0.469945        2.000000        0.39815437        0.09322597        0.00136175        0.19157224        0.06575498        0.00659341        0.00116791        0.01534534        0.03385632
      28         -0.468866        2.000000        0.40468326        0.15720198        0.00119492        0.11944896        0.04241998        0.01373957        0.00132900        0.00876127        0.05648714
      29         -0.468517        2.000000        0.11355253        0.03490775        0.00063467        0.05407844        0.00985498        0.00250303        0.00035621        0.00375842        0.01147876
      30         -0.467563        2.000000        0.34300782        0.12747690        0.00091850        0.14308565        0.03170560        0.00837511        0.00100127        0.01020357        0.03017665
      31         -0.467186        2.000000        0.35465844        0.16501761        0.00086879        0.10833798        0.02677805        0.01084399        0.00112863        0.00841698        0.04169788
      32         -0.463796        2.000000        0.40678666        0.12952738        0.00188866        0.14483195        0.05400476        0.01048708        0.00147483        0.01155392        0.04776477
      33         -0.423279        2.000000        0.00772060        0.00323729        0.00282808        0.00880548        0.00030761        0.00029677        0.00064204        0.00069049        0.00012573
      34         -0.420051        2.000000        0.01241401        0.00560261        0.00401911        0.01335722        0.00032312        0.00060097        0.00121930        0.00109037        0.00019573
      35         -0.417826        2.000000        0.03597328        0.04645865        0.01233167        0.00352654        0.00044066        0.00401554        0.00283533        0.00087135        0.00122153
      36         -0.414593        2.000000        0.03365531        0.01296318        0.01107321        0.02819913        0.00180817        0.00208666        0.00241904        0.00359353        0.00100180
      37         -0.411937        2.000000        0.24120972        0.15649446        0.04081478        0.15551876        0.00681905        0.01788883        0.01330524        0.01398461        0.00939402
      38         -0.410211        2.000000        0.01047834        0.00395056        0.00442710        0.00645296        0.00088665        0.00106715        0.00103639        0.00124306        0.00072538
      39         -0.409503        2.000000        0.17636436        0.13231209        0.03078054        0.09471321        0.00490249        0.01436920        0.00856324        0.01103950        0.00561965
      40         -0.408824        2.000000        0.24269996        0.09261602        0.03784923        0.23405273        0.00959420        0.01087571        0.01176107        0.02344728        0.00423155
      41         -0.407862        2.000000        0.12482494        0.10796606        0.02189426        0.04924842        0.00531112        0.01067817        0.00771273        0.00660963        0.00564792
      42         -0.406332        2.000000        0.03604924        0.03942962        0.00662525        0.00665784        0.00108204        0.00452802        0.00184106        0.00119867        0.00182958
      43         -0.403430        2.000000        0.13308541        0.06426534        0.02866367        0.06739664        0.00993150        0.00917733        0.00902760        0.00954316        0.01100100
      44         -0.402838        2.000000        0.10599161        0.04358944        0.02513791        0.05708101        0.01239611        0.00496527        0.00708717        0.00932857        0.00602790
      45         -0.401399        2.000000        0.05410923        0.02531210        0.01413395        0.02885504        0.00504936        0.00336228        0.00385140        0.00420163        0.00434956
      46         -0.399941        2.000000        0.28791851        0.10797388        0.07289220        0.15389648        0.03345236        0.01616395        0.01872458        0.02506565        0.01804342
      47         -0.399508        2.000000        0.29473390        0.15936390        0.06485236        0.10743553        0.01777772        0.02365211        0.01810413        0.01498812        0.03689513
      48         -0.397402        2.000000        0.27982378        0.15700975        0.06652392        0.11466868        0.01939282        0.02009670        0.01877362        0.01562915        0.03154479
      49         -0.396683        2.000000        0.28120034        0.12143744        0.06028472        0.14288865        0.02819010        0.01691387        0.01871100        0.01821653        0.02436896
      50         -0.395308        2.000000        0.29039175        0.12438735        0.06794714        0.14846692        0.03054170        0.01695743        0.02066805        0.01927162        0.02251042
      51         -0.386464        2.000000        0.04909743        0.01273400        0.08887621        0.01796365        0.00379611        0.00326742        0.00786614        0.00506496        0.00282336
      52         -0.380240        2.000000        0.06040552        0.01693506        0.12819883        0.00427826        0.00115839        0.01013916        0.00846309        0.00284743        0.00482432
      53         -0.379880        2.000000        0.03522091        0.00455584        0.13383837        0.00357117        0.00084604        0.00217915        0.00670638        0.00148899        0.00115811
      54         -0.376154        2.000000        0.06661677        0.01277401        0.11354813        0.01567167        0.00481998        0.00406044        0.00988981        0.00757415        0.00328156
      55         -0.374665        2.000000        0.06014178        0.00958165        0.11845622        0.01186935        0.00323849        0.00540581        0.00820114        0.00651108        0.00258571
      56         -0.372040        2.000000        0.05546306        0.01680811        0.12610461        0.00451864        0.00108182        0.00637266        0.00780253        0.00239387        0.00394587
      57         -0.371557        2.000000        0.09880749        0.01369757        0.19398562        0.02199969        0.00559105        0.00659303        0.01189013        0.01060535        0.00319093
      58         -0.366078        2.000000        0.13369518        0.02898405        0.19191956        0.03086643        0.00782159        0.01049423        0.01499339        0.01061280        0.00644245
      59         -0.363888        2.000000        0.12380045        0.02651710        0.16881214        0.02842259        0.00725147        0.00757757        0.01480804        0.01076204        0.00673891
      60         -0.362384        2.000000        0.13582172        0.03752691        0.20650003        0.01679831        0.00448882        0.01403683        0.01394908        0.00587263        0.00987681
      61         -0.361226        2.000000        0.14216197        0.01831105        0.22368851        0.04259894        0.01065769        0.00526025        0.01667800        0.01506762        0.00390670
      62         -0.359920        2.000000        0.11421127        0.01592029        0.15962268        0.03773798        0.00829341        0.00433547        0.01376799        0.01223848        0.00354248
      63         -0.357893        2.000000        0.15804050        0.04991604        0.23529279        0.01667767        0.00413567        0.01806545        0.01829996        0.00684219        0.01327526
      64         -0.354080        2.000000        0.08963659        0.00607060        0.26559847        0.00881561        0.00184803        0.00168728        0.00845158        0.00340072        0.00107719
      65         -0.281081        2.000000        0.00625033        0.09948026        0.37734377        0.19687931        0.00427438        0.00439500        0.02187143        0.00599704        0.00422617
      66         -0.278342        2.000000        0.00387839        0.08974011        0.38579853        0.17730144        0.00124080        0.00276669        0.01820914        0.00401707        0.00137672
      67         -0.274498        2.000000        0.00706811        0.18459074        0.37821818        0.07571522        0.00464037        0.00351149        0.01963645        0.00329424        0.00276983
      68         -0.272141        2.000000        0.01283690        0.08100879        0.30684205        0.12285928        0.00940630        0.00639879        0.01213144        0.00490203        0.01323798
      69         -0.269567        2.000000        0.00911234        0.07582541        0.22200911        0.06358868        0.00801186        0.00367948        0.00994431        0.00299688        0.00550771
      70         -0.268788        2.000000        0.01402320        0.08379078        0.31594347        0.12856370        0.01222202        0.00531696        0.01493254        0.00394775        0.00872767
      71         -0.266820        2.000000        0.01066640        0.07308539        0.23407257        0.12235259        0.00611569        0.00748514        0.01908727        0.00193733        0.01149398
      72         -0.264912        2.000000        0.00764576        0.05471155        0.18018699        0.06614687        0.00420111        0.00379503        0.00903273        0.00136228        0.00864909
      73         -0.263225        2.000000        0.01358810        0.06718563        0.23549086        0.11650074        0.00850449        0.00558573        0.00957581        0.00382545        0.01206239
      74         -0.262929        2.000000        0.00928584        0.08054978        0.23223819        0.08328955        0.00679791        0.00548055        0.01488226        0.00112898        0.00992165
      75         -0.261412        2.000000        0.01324483        0.07854918        0.25507623        0.13833377        0.01333959        0.00681897        0.01672207        0.00325620        0.00782987
      76         -0.260458        2.000000        0.01686237        0.06390791        0.30913399        0.17007677        0.01443730        0.00471409        0.01325973        0.00328694        0.01368254
      77         -0.258211        2.000000        0.00920217        0.14102431        0.25939306        0.13151804        0.01354290        0.00789778        0.03583754        0.00540417        0.00495914
      78         -0.255935        2.000000        0.01129953        0.08556158        0.25692387        0.06663855        0.00557269        0.00774320        0.04658583        0.00364186        0.01010287
      79         -0.254712        2.000000        0.01971569        0.09877611        0.20009921        0.12913977        0.01526007        0.00462205        0.03362170        0.00372549        0.00838257
      80         -0.253818        2.000000        0.00720238        0.10064503        0.16142314        0.11890259        0.00556456        0.00929217        0.04110962        0.00233077        0.00597666
      81         -0.253276        2.000000        0.01424718        0.20947510        0.16221859        0.09671222        0.00820077        0.00512007        0.02910287        0.00777888        0.01133965
      82         -0.252026        2.000000        0.01298755        0.11955411        0.22472418        0.09526653        0.00875234        0.01009523        0.03901735        0.00451022        0.00867517
      83         -0.251421        2.000000        0.01045526        0.17890529        0.21433109        0.14269033        0.01072444        0.00497852        0.04203742        0.01102283        0.00834204
      84         -0.250711        2.000000        0.00959624        0.08250148        0.08910533        0.09589679        0.00894348        0.00296737        0.01646804        0.00347461        0.00404194
      85         -0.249920        2.000000        0.02102625        0.07391796        0.15948014        0.13564948        0.01546755        0.00236484        0.02989174        0.00371175        0.00815403
      86         -0.249122        2.000000        0.02444870        0.09218611        0.22230479        0.13698359        0.01690153        0.00643316        0.04827420        0.00535217        0.01059898
      87         -0.248381        2.000000        0.00739146        0.04606665        0.10511569        0.03310234        0.00398867        0.00292291        0.02108804        0.00367181        0.00452421
      88         -0.248233        2.000000        0.00470916        0.12926468        0.22451614        0.07045766        0.00647772        0.00419073        0.04526410        0.01008229        0.00476276
      89         -0.246481        2.000000        0.01015016        0.10615697        0.17518642        0.12807568        0.00749787        0.00519307        0.03088400        0.00677913        0.00881292
      90         -0.246271        2.000000        0.02122252        0.15568664        0.13738009        0.11384267        0.01428800        0.00295427        0.02435485        0.00598669        0.01221173
      91         -0.245454        2.000000        0.01087051        0.12365256        0.18982111        0.08595154        0.00991386        0.00439916        0.03622390        0.00685813        0.00976169
      92         -0.245013        2.000000        0.00566810        0.03981428        0.12063431        0.05558178        0.00454555        0.00479591        0.03137182        0.00316508        0.00284992
      93         -0.244600        2.000000        0.02513954        0.15533369        0.18695449        0.11866281        0.01139757        0.00668328        0.02872741        0.00547375        0.02117821
      94         -0.243104        2.000000        0.01443844        0.11769351        0.24809766        0.09204444        0.01226981        0.00626671        0.04304689        0.01096201        0.01384640
      95         -0.242489        2.000000        0.02327522        0.18168085        0.20250715        0.06028280        0.00590230        0.00679250        0.04530506        0.00440562        0.02398890
      96         -0.242116        2.000000        0.01419597        0.06883494        0.15552866        0.10146232        0.01412661        0.00236536        0.03464757        0.00400804        0.00794989
      97         -0.241326        2.000000        0.01780056        0.15614479        0.15347053        0.09869778        0.01000086        0.00504875        0.04309531        0.00418946        0.01949256
      98         -0.241099        2.000000        0.01403601        0.06286261        0.20962425        0.13246060        0.01352588        0.00632917        0.04801826        0.00373333        0.01015485
      99         -0.240386        2.000000        0.01956055        0.10569602        0.11834349        0.11486390        0.01682802        0.00316612        0.01930436        0.00273961        0.01080539
     100         -0.238692        2.000000        0.01102195        0.04949575        0.11682205        0.08576748        0.00930010        0.00281627        0.02579338        0.00233018        0.00740514
     101         -0.238208        2.000000        0.01590579        0.07562179        0.17777768        0.07267292        0.00826773        0.00508705        0.04396035        0.00455499        0.01265853
     102         -0.237269        2.000000        0.00844244        0.07060742        0.14343529        0.05129473        0.00580758        0.00321251        0.04401591        0.00421257        0.00750671
     103         -0.236009        2.000000        0.01135792        0.07718660        0.11026559        0.08051246        0.00674385        0.00284256        0.02212223        0.00241200        0.01146911
     104         -0.235763        2.000000        0.01072454        0.05884800        0.17324512        0.06605037        0.00979803        0.00431159        0.04876274        0.00482233        0.00513901
     105         -0.234518        2.000000        0.02090784        0.10811683        0.18528279        0.11642481        0.01579414        0.00392993        0.04263831        0.00492386        0.01726254
     106         -0.233373        2.000000        0.01117642        0.05727462        0.15030277        0.05567032        0.00781478        0.00562492        0.03561685        0.00297225        0.00960633
     107         -0.232399        2.000000        0.00815203        0.15703149        0.13608117        0.16157584        0.01345681        0.01011065        0.02323595        0.00721385        0.01398008
     108         -0.231513        2.000000        0.01389025        0.10417606        0.14590027        0.10253350        0.00762392        0.00656340        0.03139892        0.00360191        0.01673008
     109         -0.230648        2.000000        0.01112328        0.05083415        0.17556017        0.06353690        0.01272015        0.00718925        0.04531213        0.00357275        0.00528123
     110         -0.230477        2.000000        0.01218089        0.10278422        0.18972255        0.07336379        0.00727445        0.00593530        0.03671606        0.00454629        0.01604142
     111         -0.229187        2.000000        0.00779801        0.05211888        0.12845691        0.08277742        0.00630051        0.00494899        0.03210051        0.00520215        0.00988813
     112         -0.228703        2.000000        0.00719192        0.05823515        0.07732395        0.05539005        0.00793862        0.00217544        0.01580921        0.00376548        0.00635149
     113         -0.226995        2.000000        0.00544587        0.08383742        0.06664990        0.09036398        0.00847222        0.00478143        0.01290062        0.00515639        0.00876219
     114         -0.226265        2.000000        0.00763487        0.05891984        0.17363338        0.06391982        0.00976241        0.00755357        0.04259848        0.00517911        0.00489441
     115         -0.225762        2.000000        0.00978150        0.06121911        0.10679696        0.13101633        0.00960803        0.00660845        0.01401974        0.00365866        0.01272072
     116         -0.224368        2.000000        0.00522260        0.06252402        0.06413784        0.05671162        0.00880277        0.00295011        0.00742118        0.00411503        0.00504353
     117         -0.223887        2.000000        0.00648687        0.09765318        0.13008551        0.09098598        0.00857132        0.00505235        0.04013270        0.00673960        0.01095204
     118         -0.222862        2.000000        0.00388319        0.04827026        0.10276306        0.06293015        0.00697067        0.00634529        0.01969256        0.00404491        0.00608076
     119         -0.222033        2.000000        0.00978653        0.08999464        0.12014314        0.06706780        0.01230865        0.00474947        0.02300655        0.00580200        0.00880003
     120         -0.221019        2.000000        0.00388100        0.09612666        0.10111897        0.06069854        0.01116894        0.00520261        0.01600476        0.00653446        0.00616914
     121         -0.220953        2.000000        0.01054971        0.10786890        0.13247738        0.05926643        0.01616416        0.00368812        0.02567407        0.00789735        0.00746889
     122         -0.219804        2.000000        0.00696339        0.10608056        0.11238820        0.05876079        0.01255926        0.00531524        0.02594879        0.00640913        0.00740423
     123         -0.219393        2.000000        0.00491580        0.05985149        0.11857385        0.05340220        0.00753599        0.00468801        0.02552957        0.00550578        0.00540021
     124         -0.217741        2.000000        0.00249970        0.03075061        0.05571737        0.02921800        0.00552768        0.00237670        0.01071634        0.00245520        0.00205499
     125         -0.216071        2.000000        0.00538213        0.03339442        0.10523260        0.02968281        0.00411955        0.00286570        0.02758658        0.00224511        0.00635683
     126         -0.213914        2.000000        0.00164178        0.02195771        0.06856168        0.01568046        0.00198684        0.00276429        0.01618884        0.00125065        0.00335913
     127         -0.213087        2.000000        0.00402633        0.04784636        0.09208298        0.02470963        0.00663959        0.00314580        0.02627418        0.00347382        0.00240816
     128         -0.212067        2.000000        0.00272604        0.02022337        0.05182676        0.01901937        0.00283146        0.00216316        0.01083501        0.00141672        0.00336528
     129         -0.208743        2.000000        0.00177924        0.01732962        0.06106376        0.01797716        0.00277605        0.00192573        0.01404648        0.00198202        0.00261971
     130         -0.207742        2.000000        0.00456814        0.01803717        0.09561188        0.03454014        0.00682677        0.00254535        0.02382275        0.00368887        0.00249752
     131         -0.205383        2.000000        0.00211654        0.02374064        0.05621198        0.01494143        0.00289150        0.00191631        0.01523729        0.00258584        0.00178651
     132         -0.204502        2.000000        0.00217149        0.02237192        0.06159726        0.01497126        0.00109925        0.00280960        0.01751018        0.00095995        0.00313940
     133         -0.200993        2.000000        0.00121805        0.01271916        0.04632614        0.01321097        0.00170808        0.00160159        0.01359688        0.00172951        0.00095160
     134         -0.199912        2.000000        0.00097517        0.01757616        0.03907272        0.02500302        0.00211118        0.00142840        0.00912978        0.00165637        0.00123985
     135         -0.198670        2.000000        0.00210473        0.01756811        0.04709501        0.01058324        0.00135406        0.00125144        0.01533251        0.00153565        0.00126512
     136         -0.197608        2.000000        0.00091537        0.00943907        0.02714429        0.01534016        0.00113638        0.00098031        0.00587376        0.00097914        0.00125716
     137         -0.195744        2.000000        0.00026939        0.01324298        0.01282206        0.02847472        0.00113897        0.00062672        0.00193018        0.00158169        0.00069969
     138         -0.194585        2.000000        0.00049696        0.02390160        0.01734281        0.01275185        0.00086171        0.00117655        0.00340009        0.00087553        0.00089598
     139         -0.192457        2.000000        0.00160451        0.58892949        0.02884636        0.22328170        0.00498080        0.01929592        0.00343737        0.00923549        0.01141714
     140         -0.191141        2.000000        0.00192112        0.04659918        0.02551728        0.76812808        0.01514950        0.00244854        0.00540900        0.02588258        0.00362635
     141         -0.187648        2.000000        0.00217524        0.62297953        0.02242822        0.23477038        0.00573555        0.01939823        0.00445571        0.01205237        0.01061534
     142         -0.175985        2.000000        0.00186875        0.07148592        0.01409531        0.75269866        0.07113151        0.00315510        0.00307517        0.02367206        0.00840116
     143         -0.170240        2.000000        0.00096632        0.52694683        0.01156283        0.30369720        0.03036305        0.01377590        0.00162904        0.00952359        0.05256093
     144         -0.168143        2.000000        0.00116245        0.54635541        0.02479734        0.25875924        0.02426883        0.01668397        0.00401144        0.01009443        0.05700898