# Projected DOS for atomic kind H at iteration step i = 0, E(Fermi) =    -0.094233 a.u.
#     MO Eigenvalue [a.u.]      Occupation                 s                py                pz                px
       1         -0.558147        2.000000        0.11084033        0.00139025        0.07988095        0.00085501
       2         -0.543805        2.000000        0.14877425        0.00081752        0.11640754        0.00040355
       3         -0.537612        2.000000        0.10492732        0.00530712        0.07140911        0.00790038
       4         -0.534378        2.000000        0.09916205        0.00898898        0.07205077        0.00338451
       5         -0.530427        2.000000        0.10350634        0.00284343        0.07318767        0.00997339
       6         -0.529104        2.000000        0.11096585        0.00600101        0.06922814        0.00776839
       7         -0.526948        2.000000        0.10356508        0.01295673        0.06938270        0.00136424
       8         -0.524713        2.000000        0.11135156        0.00715960        0.08477412        0.00446748
       9         -0.521606        2.000000        0.10828343        0.00480911        0.06749070        0.01064986
      10         -0.518714        2.000000        0.11035240        0.00568629        0.08474206        0.00664105
      11         -0.517802        2.000000        0.11191594        0.00460655        0.08431407        0.00745498
      12         -0.517591        2.000000        0.10849809        0.00452129        0.08279719        0.00720842
      13         -0.513456        2.000000        0.11778479        0.00613608        0.07980320        0.00634611
      14         -0.510529        2.000000        0.11324858        0.01006228        0.07637211        0.00386391
      15         -0.491247        2.000000        0.10992287        0.01038923        0.06035127        0.00567683
      16         -0.487331        2.000000        0.10886776        0.00456940        0.05874452        0.01348243
      17         -0.485001        2.000000        0.11154922        0.00558651        0.05658755        0.01291806
      18         -0.483305        2.000000        0.11533002        0.00907171        0.05853511        0.00781092
      19         -0.481472        2.000000        0.11585655        0.01043675        0.05651030        0.00674489
      20         -0.481196        2.000000        0.11815309        0.00960843        0.05701731        0.00669125
      21         -0.478928        2.000000        0.11669430        0.00691770        0.05977980        0.00535052
      22         -0.478121        2.000000        0.10917971        0.00633170        0.05988263        0.00760895
      23         -0.476163        2.000000        0.11531255        0.01001043        0.05589579        0.00716514
      24         -0.475037        2.000000        0.11196928        0.00822333        0.06073148        0.00475794
      25         -0.472108        2.000000        0.11825064        0.00817517        0.05523553        0.00482569
      26         -0.471076        2.000000        0.11141866        0.00751193        0.05427215        0.00558870
      27         -0.469284        2.000000        0.11487832        0.00479833        0.05416864        0.00937420
      28         -0.468721        2.000000        0.11720547        0.00459336        0.05672142        0.00993914
      29         -0.468599        2.000000        0.11263199        0.00676441        0.05297259        0.00684184
      30         -0.466927        2.000000        0.11353705        0.00692095        0.05639921        0.00713313
      31         -0.466676        2.000000        0.11400933        0.00682958        0.05634897        0.00711536
      32         -0.463736        2.000000        0.11947850        0.00670619        0.05338454        0.00659802
      33         -0.423540        2.000000        0.17177077        0.00431408        0.04101787        0.01607642
      34         -0.420135        2.000000        0.17034803        0.00577895        0.03986792        0.01304779
      35         -0.418019        2.000000        0.18172679        0.01798112        0.03435802        0.00253348
      36         -0.414523        2.000000        0.20629124        0.00738993        0.03823993        0.00524934
      37         -0.412183        2.000000        0.17298196        0.00561211        0.03914479        0.00606245
      38         -0.410239        2.000000        0.19130421        0.00685705        0.03895176        0.00756476
      39         -0.409310        2.000000        0.18040299        0.00718159        0.03434448        0.00674941
      40         -0.408502        2.000000        0.16975310        0.00480637        0.03754310        0.00902750
      41         -0.407809        2.000000        0.17774203        0.00636231        0.03848158        0.00524212
      42         -0.406316        2.000000        0.18304867        0.00528599        0.04364033        0.00461423
      43         -0.403812        2.000000        0.19022970        0.00388908        0.03993022        0.00713907
      44         -0.402843        2.000000        0.18533753        0.00604427        0.04074940        0.00608700
      45         -0.401645        2.000000        0.19035517        0.00588401        0.04083357        0.00507363
      46         -0.399724        2.000000        0.19083168        0.00470679        0.03813287        0.00740884
      47         -0.398883        2.000000        0.18355416        0.00635907        0.03750490        0.00517692
      48         -0.397287        2.000000        0.18386018        0.00664348        0.03823451        0.00559263
      49         -0.396035        2.000000        0.18746055        0.00439939        0.03678739        0.00563318
      50         -0.394200        2.000000        0.18700034        0.00566903        0.03608121        0.00418571
      51         -0.386922        2.000000        0.29902633        0.00416611        0.02373680        0.00377655
      52         -0.380969        2.000000        0.32050886        0.00378175        0.01955083        0.00309189
      53         -0.379645        2.000000        0.32000450        0.00411925        0.01787313        0.00165177
      54         -0.375805        2.000000        0.30675011        0.00292069        0.01988838        0.00468874
      55         -0.375093        2.000000        0.30735876        0.00194959        0.02173702        0.00411422
      56         -0.372389        2.000000        0.31239435        0.00495655        0.02114699        0.00230390
      57         -0.370876        2.000000        0.31283012        0.00177394        0.01909648        0.00467653
      58         -0.366293        2.000000        0.29951944        0.00231579        0.04180907        0.00293333
      59         -0.363961        2.000000        0.29358427        0.00209267        0.04461360        0.00267636
      60         -0.361792        2.000000        0.29245815        0.00294742        0.04900640        0.00285888
      61         -0.360505        2.000000        0.29413025        0.00180770        0.04063373        0.00231582
      62         -0.359305        2.000000        0.29501792        0.00177959        0.04343451        0.00201976
      63         -0.357558        2.000000        0.29236954        0.00289232        0.04195876        0.00152558
      64         -0.353978        2.000000        0.31729911        0.00111251        0.04886861        0.00085100
      65         -0.280839        2.000000        0.23850522        0.00736828        0.00104382        0.02224325
      66         -0.277881        2.000000        0.23012449        0.01095254        0.00196947        0.02771884
      67         -0.274099        2.000000        0.22488660        0.02560013        0.00251074        0.00975444
      68         -0.271664        2.000000        0.21157713        0.01521278        0.00489728        0.02589997
      69         -0.269572        2.000000        0.21496576        0.03032475        0.00435920        0.01934461
      70         -0.268635        2.000000        0.20871151        0.01306357        0.00406223        0.02177931
      71         -0.266636        2.000000        0.22359850        0.01329057        0.00340251        0.02462947
      72         -0.264684        2.000000        0.21715046        0.01604754        0.00409848        0.02017310
      73         -0.263196        2.000000        0.22131028        0.01380464        0.00472659        0.02069098
      74         -0.262509        2.000000        0.21307557        0.01908309        0.00365261        0.01300345
      75         -0.260924        2.000000        0.21672102        0.01209020        0.00282209        0.02158926
      76         -0.260194        2.000000        0.19584992        0.01733413        0.00412021        0.01915742
      77         -0.258104        2.000000        0.22672380        0.01388798        0.00414014        0.01411073
      78         -0.255607        2.000000        0.27867760        0.01275761        0.00635608        0.00767788
      79         -0.254193        2.000000        0.22517554        0.01751590        0.00705988        0.01309805
      80         -0.253547        2.000000        0.25909998        0.01049446        0.00655528        0.01547875
      81         -0.252886        2.000000        0.20766108        0.02118852        0.00457657        0.01232106
      82         -0.252373        2.000000        0.22057615        0.01555729        0.00684718        0.01526493
      83         -0.251554        2.000000        0.22664150        0.01829443        0.00341668        0.01136621
      84         -0.251029        2.000000        0.20563624        0.01698185        0.00423048        0.01711020
      85         -0.249540        2.000000        0.21452509        0.01093379        0.00959496        0.02144987
      86         -0.249137        2.000000        0.23356492        0.01185768        0.00695562        0.01945762
      87         -0.248820        2.000000        0.25519824        0.02084170        0.00785317        0.01037380
      88         -0.247773        2.000000        0.25823178        0.01547323        0.00616001        0.01101727
      89         -0.246422        2.000000        0.18551047        0.01994464        0.00836789        0.02033053
      90         -0.246304        2.000000        0.23585146        0.01151301        0.00566747        0.01570208
      91         -0.245417        2.000000        0.24930925        0.00944007        0.00940841        0.01664897
      92         -0.244560        2.000000        0.24409898        0.01376414        0.00764350        0.01233543
      93         -0.244401        2.000000        0.17639084        0.02110234        0.01106914        0.01506763
      94         -0.243054        2.000000        0.25870571        0.01482911        0.00629300        0.01593797
      95         -0.242417        2.000000        0.24572219        0.01348894        0.01047894        0.01187001
      96         -0.241973        2.000000        0.20000679        0.01910216        0.00799771        0.01068585
      97         -0.241488        2.000000        0.21864448        0.01768943        0.00849908        0.01263580
      98         -0.240726        2.000000        0.29744710        0.00805983        0.00981159        0.01206299
      99         -0.240505        2.000000        0.14993497        0.01691712        0.00424461        0.01996308
     100         -0.238813        2.000000        0.24872921        0.01057952        0.00625016        0.01521954
     101         -0.238126        2.000000        0.21851101        0.01383391        0.01070571        0.01746272
     102         -0.237029        2.000000        0.26486892        0.01408789        0.00851394        0.01032711
     103         -0.236126        2.000000        0.25704383        0.01053862        0.00670566        0.01525599
     104         -0.235866        2.000000        0.23751385        0.01255563        0.00527154        0.01360773
     105         -0.234475        2.000000        0.22647560        0.01031179        0.00633684        0.01506377
     106         -0.233186        2.000000        0.24029368        0.01227404        0.01108759        0.01443972
     107         -0.232024        2.000000        0.18951913        0.01590415        0.00510513        0.01475984
     108         -0.231431        2.000000        0.24158495        0.00918738        0.00868959        0.01304493
     109         -0.230605        2.000000        0.26974436        0.01282782        0.01098965        0.01405368
     110         -0.230328        2.000000        0.25976303        0.01229104        0.00796064        0.01055268
     111         -0.229493        2.000000        0.25839850        0.01325203        0.00718028        0.01221196
     112         -0.228596        2.000000        0.22701172        0.01300388        0.00610748        0.01667190
     113         -0.227188        2.000000        0.15667646        0.01950338        0.00535358        0.01759951
     114         -0.226387        2.000000        0.27014907        0.01098773        0.00959107        0.01147317
     115         -0.225750        2.000000        0.16640654        0.01911694        0.00627298        0.01372780
     116         -0.224636        2.000000        0.19877735        0.01280854        0.00620576        0.01624902
     117         -0.223929        2.000000        0.23276438        0.01448889        0.00881139        0.01414310
     118         -0.222594        2.000000        0.20255162        0.01185900        0.00747240        0.01927845
     119         -0.222043        2.000000        0.20520243        0.02090986        0.00740596        0.01163871
     120         -0.220867        2.000000        0.18350899        0.02295643        0.00727602        0.01201167
     121         -0.220483        2.000000        0.22516072        0.01495188        0.00591808        0.01411019
     122         -0.219858        2.000000        0.25136319        0.01128423        0.00834159        0.01276350
     123         -0.219361        2.000000        0.21457481        0.01830316        0.00558927        0.01396686
     124         -0.217615        2.000000        0.22560612        0.01710879        0.00606106        0.01622048
     125         -0.216245        2.000000        0.19934605        0.01410145        0.00575111        0.01565715
     126         -0.213666        2.000000        0.23098464        0.01442187        0.00802493        0.01533116
     127         -0.213111        2.000000        0.30274145        0.00685028        0.00763418        0.01262148
     128         -0.212035        2.000000        0.27981134        0.01295344        0.00889883        0.01208771
     129         -0.208772        2.000000        0.20629065        0.01345021        0.00709373        0.01643678
     130         -0.207910        2.000000        0.31068512        0.00838194        0.00865643        0.01179895
     131         -0.205287        2.000000        0.19122029        0.02113259        0.00704453        0.01357931
     132         -0.204323        2.000000        0.24433425        0.01542750        0.01014731        0.01038108
     133         -0.200859        2.000000        0.24047343        0.01321771        0.01170656        0.01532628
     134         -0.199155        2.000000        0.25668260        0.00999228        0.01442540        0.01604494
     135         -0.198398        2.000000        0.21377056        0.01690303        0.01030776        0.01600254
     136         -0.197395        2.000000        0.12496563        0.02134996        0.00977087        0.02043217
     137         -0.196294        2.000000        0.16149852        0.02716795        0.00870782        0.01517633
     138         -0.194560        2.000000        0.15179971        0.02422195        0.01033145        0.01593792
     139         -0.191931        2.000000        0.01925802        0.03041819        0.00151540        0.01098350
     140         -0.190836        2.000000        0.02485324        0.00234781        0.00170723        0.03863288
     141         -0.187275        2.000000        0.01113387        0.03229036        0.00134719        0.01060737
     142         -0.175525        2.000000        0.00442676        0.00389186        0.00103975        0.03646798
     143         -0.169935        2.000000        0.00298290        0.02735122        0.00095806        0.01457107
     144         -0.167633        2.000000        0.00726741        0.02773879        0.00230483        0.01427215
     145         -0.166525        2.000000        0.00465785        0.02884953        0.00138022        0.01238611
     146         -0.166009        2.000000        0.00718413        0.03155476        0.00125056        0.00939408
     147         -0.163245        2.000000        0.00793276        0.00296960        0.00210062        0.04921810
     148         -0.160747        2.000000        0.00275152        0.01148958        0.00116197        0.03030275
     149         -0.159396        2.000000        0.00878261        0.03863260        0.00313794        0.01252099
     150         -0.156321        2.000000        0.01249036        0.03887321        0.00420613        0.01231894
     151         -0.141728        2.000000        0.00287884        0.00798724        0.00166769        0.04217205
     152         -0.137464        2.000000        0.00169199        0.00085590        0.00075854        0.03717723
     153         -0.136949        2.000000        0.00431912        0.03183624        0.00228934        0.01737277
     154         -0.135678        2.000000        0.00319268        0.01730912        0.00131777        0.03371242
     155         -0.134073        2.000000        0.00241372        0.04003649        0.00114599        0.00061703
     156         -0.133094        2.000000        0.00499689        0.03695821        0.00207154        0.01243218
     157         -0.129224        2.000000        0.00292674        0.02270151        0.00216998        0.02765198
     158         -0.127130        2.000000        0.00403111        0.03699863        0.00193412        0.01509783
     159         -0.099242        2.000000        0.00316317        0.00128706        0.00099629        0.04666851
     160         -0.094233        2.000000        0.00355730        0.04737595        0.00082209        0.00160548
     161         -0.024659        0.000000        0.02910752        0.00162468        0.01862955        0.00155271
     162         -0.018469        0.000000        0.01251279        0.00375573        0.01251965        0.00262621
     163         -0.016854        0.000000        0.00512025        0.00967645        0.01645737        0.00788885
     164         -0.014541        0.000000        0.00510201        0.01065566        0.01549928        0.01241392
     165         -0.012048        0.000000        0.00505513        0.00983018        0.01499380        0.01440034
     166         -0.004584        0.000000        0.01119717        0.02083326        0.01624802        0.01358850
     167         -0.002816        0.000000        0.01390710        0.01729494        0.01380925        0.01569585
     168         -0.000298        0.000000        0.01222755        0.01901986        0.01868288        0.01871322
     169          0.000829        0.000000        0.01479474        0.01018228        0.01662910        0.02742558
     170          0.002340        0.000000        0.01451957        0.01614304        0.01595652        0.02316603
     171          0.003425        0.000000        0.01287080        0.01764098        0.01251755        0.02372661
     172          0.004259        0.000000        0.01439535        0.01089656        0.01917264        0.02342055
     173          0.007106        0.000000        0.01696273        0.02618525        0.02203058        0.01510762
     174          0.008939        0.000000        0.01271030        0.02517730        0.01616502        0.01015643
     175          0.017740        0.000000        0.00933020        0.01876187        0.02220113        0.02905365
     176          0.022899        0.000000        0.01237246        0.03415876        0.02298126        0.01839163
     177          0.023472        0.000000        0.00940576        0.03249736        0.02213064        0.02340541
     178          0.027082        0.000000        0.01080103        0.02023089        0.02445572        0.03002354
     179          0.028989        0.000000        0.01046686        0.02263300        0.02417932        0.03215323
     180          0.031863        0.000000        0.01825560        0.02510276        0.03465694        0.02126004
     181          0.048668        0.000000        0.05737822        0.05372886        0.05717930        0.12413432
     182          0.049042        0.000000        0.03858491        0.06598080        0.04019248        0.06468745
     183          0.053587        0.000000        0.02106300        0.04925842        0.02414753        0.03918477
     184          0.054256        0.000000        0.04108098        0.03876660        0.03798311        0.08867786
     185          0.058367        0.000000        0.07020688        0.13221967        0.06619972        0.07402729
     186          0.061424        0.000000        0.07738296        0.09339786        0.06400252        0.08292483
     187          0.068180        0.000000        0.06625246        0.05458218        0.05924091        0.10899896
     188          0.071322        0.000000        0.06931467        0.06890641        0.06536685        0.08341416
     189          0.072666        0.000000        0.06810344        0.06762697        0.06054877        0.09736916
     190          0.073466        0.000000        0.07097253        0.09611393        0.05820336        0.07749421
     191          0.075941        0.000000        0.06081062        0.07227383        0.05451738        0.09114976
     192          0.077366        0.000000        0.06110553        0.07388564        0.05315264        0.09327123
     193          0.081117        0.000000        0.05367783        0.12830087        0.05743447        0.03564660
     194          0.082614        0.000000        0.06715077        0.07809901        0.06784393        0.10438259
     195          0.083772        0.000000        0.06365598        0.07061016        0.06236967        0.09743255
     196          0.084929        0.000000        0.05905239        0.10336672        0.06843814        0.03743646
     197          0.085999        0.000000        0.05091586        0.12048341        0.06825677        0.06198302
     198          0.087973        0.000000        0.05587738        0.11967193        0.07245752        0.05829372
     199          0.089844        0.000000        0.05271797        0.06012711        0.04477564        0.06116446
     200          0.090352        0.000000        0.07189088        0.05964681        0.04875750        0.05957540
     201          0.094688        0.000000        0.05510170        0.06786851        0.04219001        0.05591525
     202          0.095133        0.000000        0.08509896        0.04896008        0.05654291        0.08277654
     203          0.097004        0.000000        0.04935671        0.03252862        0.03546586        0.06020203
     204          0.097893        0.000000        0.06566244        0.05581311        0.05219488        0.06939528
     205          0.098686        0.000000        0.08628166        0.05874824        0.06187542        0.06601360
     206          0.100579        0.000000        0.07662052        0.06034915        0.05100215        0.06912585
     207          0.101303        0.000000        0.08570204        0.05886562        0.04675794        0.06047220
     208          0.102167        0.000000        0.12295262        0.05111449        0.06527287        0.05007997
     209          0.103194        0.000000        0.07059239        0.06402042        0.05227570        0.06473499
     210          0.104005        0.000000        0.09492277        0.04566015        0.04945931        0.06253975
