# Projected DOS for atomic kind H at iteration step i = 0, E(Fermi) =    -0.093762 a.u.
#     MO Eigenvalue [a.u.]      Occupation                 s                py                pz                px
       1         -0.557943        2.000000        0.11016909        0.00112459        0.07924831        0.00074497
       2         -0.545618        2.000000        0.15062722        0.00061492        0.11753280        0.00035444
       3         -0.536546        2.000000        0.10040302        0.00703889        0.07060322        0.00576125
       4         -0.535303        2.000000        0.10210169        0.00637769        0.07240673        0.00593219
       5         -0.530634        2.000000        0.10287881        0.00330866        0.07267754        0.00905203
       6         -0.528890        2.000000        0.11253688        0.00736689        0.06302736        0.00675737
       7         -0.527138        2.000000        0.10956832        0.01178109        0.07000129        0.00356498
       8         -0.526522        2.000000        0.10409039        0.00703652        0.08726258        0.00239069
       9         -0.522555        2.000000        0.11407799        0.00525643        0.06746901        0.01027395
      10         -0.521301        2.000000        0.10634931        0.00397110        0.08377294        0.00862499
      11         -0.520230        2.000000        0.10999962        0.00382275        0.08764908        0.00719560
      12         -0.518442        2.000000        0.11057195        0.00519570        0.08689225        0.00699770
      13         -0.514881        2.000000        0.11838191        0.00578226        0.08086725        0.00654302
      14         -0.512519        2.000000        0.11709816        0.01110886        0.07626569        0.00358478
      15         -0.490628        2.000000        0.10928245        0.01078910        0.05980439        0.00526227
      16         -0.488317        2.000000        0.10676216        0.00468789        0.05873020        0.01215159
      17         -0.484213        2.000000        0.11334525        0.00524846        0.05813274        0.00939203
      18         -0.483067        2.000000        0.10973482        0.00967441        0.05603069        0.01004196
      19         -0.481697        2.000000        0.11427078        0.00939385        0.05190322        0.00868413
      20         -0.480078        2.000000        0.11572765        0.00888407        0.05751982        0.00592688
      21         -0.479874        2.000000        0.10715426        0.00728091        0.06456327        0.00519487
      22         -0.478312        2.000000        0.11382300        0.00673936        0.05993649        0.00535349
      23         -0.477414        2.000000        0.11304844        0.00802313        0.05612306        0.00904946
      24         -0.476379        2.000000        0.11112743        0.00723477        0.06116407        0.00418973
      25         -0.474376        2.000000        0.11873061        0.00480982        0.05617846        0.00872507
      26         -0.473214        2.000000        0.11590435        0.00927510        0.05502449        0.00524281
      27         -0.472088        2.000000        0.11778947        0.00596599        0.05509557        0.00722848
      28         -0.470439        2.000000        0.11490776        0.00724355        0.05366625        0.00740219
      29         -0.469865        2.000000        0.12175778        0.00936153        0.05431227        0.00532407
      30         -0.468249        2.000000        0.11330105        0.00456691        0.06026463        0.01114123
      31         -0.467808        2.000000        0.11556563        0.00719043        0.05591958        0.00683848
      32         -0.463886        2.000000        0.12191186        0.00540050        0.05459783        0.00928270
      33         -0.422660        2.000000        0.16971380        0.00602320        0.03902624        0.01446242
      34         -0.420122        2.000000        0.17100284        0.00642082        0.03908573        0.01275487
      35         -0.417967        2.000000        0.17468674        0.01580225        0.03613382        0.00422989
      36         -0.413592        2.000000        0.18919131        0.00609886        0.03627010        0.00741196
      37         -0.411496        2.000000        0.16720042        0.00924310        0.03838264        0.00376192
      38         -0.410755        2.000000        0.18205017        0.00553470        0.03979230        0.00637243
      39         -0.410173        2.000000        0.16036689        0.00465093        0.03597400        0.00890460
      40         -0.409588        2.000000        0.17321728        0.00524365        0.04161458        0.00610991
      41         -0.406998        2.000000        0.19338957        0.00501590        0.03396851        0.00488680
      42         -0.406299        2.000000        0.18572296        0.00475443        0.04175124        0.00490700
      43         -0.403739        2.000000        0.18353437        0.00518667        0.04507372        0.00723573
      44         -0.402745        2.000000        0.19250033        0.00727323        0.03826484        0.00429853
      45         -0.402528        2.000000        0.18781874        0.00428005        0.03886703        0.00596651
      46         -0.401500        2.000000        0.19196695        0.00539108        0.03834359        0.00557579
      47         -0.400617        2.000000        0.19149443        0.00485094        0.03847988        0.00545501
      48         -0.399587        2.000000        0.18637008        0.00513460        0.03807209        0.00652492
      49         -0.398029        2.000000        0.18278449        0.00681636        0.04178838        0.00650333
      50         -0.397164        2.000000        0.19713964        0.00377303        0.03564753        0.00673084
      51         -0.385139        2.000000        0.30690127        0.00318731        0.02351574        0.00336379
      52         -0.380456        2.000000        0.31710282        0.00475280        0.01768611        0.00124617
      53         -0.378228        2.000000        0.31757592        0.00220209        0.01768071        0.00292897
      54         -0.377036        2.000000        0.31280983        0.00229314        0.01678412        0.00444840
      55         -0.375251        2.000000        0.31369632        0.00267263        0.01779999        0.00346585
      56         -0.373556        2.000000        0.30749227        0.00175472        0.01868941        0.00476035
      57         -0.371744        2.000000        0.31030835        0.00317996        0.02070946        0.00193022
      58         -0.366410        2.000000        0.30582049        0.00252639        0.03956744        0.00177234
      59         -0.365584        2.000000        0.29726111        0.00204581        0.04129241        0.00287714
      60         -0.363546        2.000000        0.29858652        0.00178878        0.04472145        0.00481282
      61         -0.362304        2.000000        0.29427876        0.00250179        0.04771289        0.00234490
      62         -0.361879        2.000000        0.29471527        0.00169147        0.04661984        0.00245201
      63         -0.359057        2.000000        0.29394186        0.00318748        0.04684925        0.00226551
      64         -0.353086        2.000000        0.31226692        0.00186369        0.04920654        0.00163086
      65         -0.280303        2.000000        0.23809721        0.00745100        0.00176558        0.02283462
      66         -0.279771        2.000000        0.23535564        0.00966566        0.00141160        0.02610104
      67         -0.275957        2.000000        0.22177644        0.02345012        0.00174472        0.00940627
      68         -0.273438        2.000000        0.21554295        0.01419471        0.00561739        0.02596922
      69         -0.270595        2.000000        0.20482737        0.02017777        0.00455847        0.02133981
      70         -0.269237        2.000000        0.20700842        0.02021374        0.00522190        0.02121725
      71         -0.267310        2.000000        0.20732177        0.01703263        0.00359219        0.01972242
      72         -0.265563        2.000000        0.22925317        0.01551039        0.00334679        0.02230961
      73         -0.264246        2.000000        0.21902419        0.01324227        0.00256161        0.02577365
      74         -0.262813        2.000000        0.20003971        0.01436241        0.00498430        0.02169340
      75         -0.262279        2.000000        0.23675514        0.01920232        0.00333329        0.01140858
      76         -0.261558        2.000000        0.20396144        0.01682656        0.00444146        0.02106853
      77         -0.258718        2.000000        0.22418891        0.01418350        0.00373090        0.01304693
      78         -0.256654        2.000000        0.23103285        0.01571024        0.00480058        0.01153316
      79         -0.255791        2.000000        0.21612423        0.01301037        0.00456805        0.01678698
      80         -0.255466        2.000000        0.26038966        0.01596857        0.00637650        0.00952149
      81         -0.254296        2.000000        0.20422759        0.01262053        0.00905094        0.01570665
      82         -0.252594        2.000000        0.24294421        0.01760932        0.00511911        0.01167464
      83         -0.251818        2.000000        0.21056895        0.02064586        0.00567765        0.01266806
      84         -0.251198        2.000000        0.23537019        0.01016206        0.00618052        0.01805824
      85         -0.249975        2.000000        0.21782199        0.01524209        0.00490077        0.01409613
      86         -0.249809        2.000000        0.25758915        0.01383139        0.00857124        0.01479937
      87         -0.249425        2.000000        0.19713637        0.01693738        0.00388054        0.02011992
      88         -0.248260        2.000000        0.18271482        0.01788035        0.00308303        0.01628960
      89         -0.247638        2.000000        0.22968921        0.01659826        0.00755766        0.01923495
      90         -0.246985        2.000000        0.23195274        0.01115117        0.00610045        0.01443372
      91         -0.245936        2.000000        0.25225973        0.01684227        0.01101853        0.01186917
      92         -0.245568        2.000000        0.18438290        0.02050470        0.00811810        0.01428700
      93         -0.244483        2.000000        0.21046684        0.01395019        0.00861321        0.02112088
      94         -0.243587        2.000000        0.23202050        0.01276506        0.00822577        0.01714682
      95         -0.243233        2.000000        0.26538603        0.00880780        0.00668583        0.01316599
      96         -0.242724        2.000000        0.20930523        0.02029744        0.00863259        0.01373634
      97         -0.241801        2.000000        0.24147652        0.01523532        0.00612578        0.01182769
      98         -0.240518        2.000000        0.20423736        0.01575433        0.00697627        0.01779733
      99         -0.239146        2.000000        0.25298384        0.01125854        0.00688943        0.01458372
     100         -0.238557        2.000000        0.28267382        0.00975739        0.01005355        0.01026353
     101         -0.238089        2.000000        0.23246325        0.01083669        0.00901457        0.01507878
     102         -0.237597        2.000000        0.22146855        0.02056935        0.00603474        0.01197599
     103         -0.236219        2.000000        0.31802598        0.00975109        0.00892275        0.00919239
     104         -0.235511        2.000000        0.24134533        0.01116679        0.00864616        0.01709777
     105         -0.234252        2.000000        0.20963859        0.01646132        0.00815906        0.01213758
     106         -0.233571        2.000000        0.23396878        0.01276264        0.00543587        0.01331926
     107         -0.233046        2.000000        0.19339174        0.01422828        0.00445995        0.01740714
     108         -0.231717        2.000000        0.24417957        0.00922710        0.00969964        0.01790119
     109         -0.231423        2.000000        0.23886730        0.01103575        0.00751153        0.01592996
     110         -0.230842        2.000000        0.23150844        0.01517995        0.01074374        0.01100886
     111         -0.229254        2.000000        0.29092087        0.00898223        0.00756494        0.01321440
     112         -0.227854        2.000000        0.25593903        0.01432098        0.00701983        0.01249834
     113         -0.227506        2.000000        0.19639828        0.01820185        0.00802916        0.01210754
     114         -0.226249        2.000000        0.15937709        0.01274675        0.00834679        0.01868759
     115         -0.225288        2.000000        0.23216600        0.01404362        0.00698200        0.01502818
     116         -0.224910        2.000000        0.20491227        0.01489973        0.00509510        0.01383674
     117         -0.224563        2.000000        0.19520800        0.01271516        0.00760835        0.01823244
     118         -0.223407        2.000000        0.17394483        0.02162871        0.00649814        0.01071639
     119         -0.222901        2.000000        0.21760709        0.01699784        0.00627426        0.01182759
     120         -0.221857        2.000000        0.26479008        0.01589367        0.00505470        0.01074110
     121         -0.221162        2.000000        0.18190766        0.02277940        0.00778777        0.01670929
     122         -0.219870        2.000000        0.24363348        0.01300200        0.00629180        0.01510231
     123         -0.219256        2.000000        0.22577305        0.01310641        0.00556633        0.01721634
     124         -0.218850        2.000000        0.22008698        0.01507507        0.00896924        0.01736799
     125         -0.215274        2.000000        0.19552907        0.01604817        0.00529947        0.01680339
     126         -0.214033        2.000000        0.28880231        0.01164172        0.00769150        0.01078538
     127         -0.212945        2.000000        0.29449525        0.01146274        0.00649599        0.01012876
     128         -0.212443        2.000000        0.26564068        0.01165138        0.00828687        0.01266860
     129         -0.208766        2.000000        0.24817195        0.01068415        0.00984436        0.01479931
     130         -0.207847        2.000000        0.25184203        0.01532340        0.00640711        0.01140072
     131         -0.206543        2.000000        0.24902205        0.01904907        0.00685490        0.00777872
     132         -0.203854        2.000000        0.21513795        0.01860052        0.01071375        0.01376252
     133         -0.202850        2.000000        0.18171804        0.01525525        0.00933313        0.01850122
     134         -0.201667        2.000000        0.20757398        0.01232905        0.01032214        0.01968284
     135         -0.199527        2.000000        0.22209236        0.01372236        0.00886107        0.01713845
     136         -0.198230        2.000000        0.22618619        0.01355489        0.01188078        0.01593987
     137         -0.195236        2.000000        0.14702052        0.02607811        0.00852348        0.01447709
     138         -0.194949        2.000000        0.16340067        0.02283345        0.00982580        0.01598000
     139         -0.193658        2.000000        0.04077038        0.02893562        0.00226542        0.01305599
     140         -0.191488        2.000000        0.03082244        0.00699383        0.00174336        0.03550729
     141         -0.188429        2.000000        0.01582385        0.03258430        0.00152900        0.01120466
     142         -0.176720        2.000000        0.00922418        0.00413408        0.00156905        0.03789138
     143         -0.170834        2.000000        0.00392803        0.02815630        0.00118420        0.01532939
     144         -0.169494        2.000000        0.00857127        0.03282276        0.00192582        0.01034112
     145         -0.167659        2.000000        0.00598555        0.03076172        0.00137194        0.01132252
     146         -0.167075        2.000000        0.00614609        0.02626246        0.00159360        0.01640838
     147         -0.163478        2.000000        0.00675593        0.00353630        0.00191272        0.04734420
     148         -0.161703        2.000000        0.00301518        0.01176100        0.00128686        0.02964911
     149         -0.159903        2.000000        0.00864031        0.03865229        0.00299076        0.01203653
     150         -0.157235        2.000000        0.00884683        0.03907418        0.00275208        0.01235447
     151         -0.142633        2.000000        0.00332054        0.00712132        0.00155165        0.04126011
     152         -0.138296        2.000000        0.00208240        0.00091224        0.00094675        0.03815020
     153         -0.137449        2.000000        0.00385627        0.03343811        0.00218758        0.01577919
     154         -0.136079        2.000000        0.00249506        0.01771826        0.00106282        0.03150978
     155         -0.135747        2.000000        0.00243578        0.04088885        0.00098179        0.00121933
     156         -0.133350        2.000000        0.00465533        0.03688803        0.00180987        0.01225299
     157         -0.129444        2.000000        0.00294405        0.02441221        0.00190190        0.02610185
     158         -0.127617        2.000000        0.00324031        0.03499035        0.00165023        0.01583956
     159         -0.100422        2.000000        0.00315448        0.00145508        0.00076503        0.04501160
     160         -0.093762        2.000000        0.00297733        0.04756329        0.00090426        0.00150705
     161         -0.026606        0.000000        0.03102473        0.00123682        0.01743089        0.00155974
     162         -0.019081        0.000000        0.01182569        0.00422804        0.01374517        0.00237086
     163         -0.018330        0.000000        0.00470586        0.00804812        0.01600738        0.00817262
     164         -0.015885        0.000000        0.00499174        0.01034022        0.01387281        0.01177491
     165         -0.013469        0.000000        0.00572378        0.01126440        0.01528008        0.01408094
     166         -0.006003        0.000000        0.01264972        0.02266463        0.01602888        0.01025712
     167         -0.004663        0.000000        0.01369768        0.01330079        0.01375310        0.02077695
     168         -0.000536        0.000000        0.01503629        0.01009275        0.01696707        0.02674664
     169         -0.000206        0.000000        0.01279552        0.01838101        0.01965417        0.01668097
     170          0.001417        0.000000        0.01372993        0.01342819        0.01517412        0.02411420
     171          0.003028        0.000000        0.01511990        0.01046997        0.01880212        0.02177615
     172          0.003543        0.000000        0.01260870        0.01975544        0.01225650        0.02291811
     173          0.005613        0.000000        0.01863136        0.02529026        0.02234118        0.01538855
     174          0.007954        0.000000        0.01258904        0.02440850        0.01548357        0.00910679
     175          0.017586        0.000000        0.00878782        0.01864934        0.02110936        0.03126781
     176          0.022482        0.000000        0.01117031        0.03576375        0.02260171        0.01459143
     177          0.023147        0.000000        0.01089368        0.02772972        0.02120221        0.02731920
     178          0.027082        0.000000        0.01026876        0.02070474        0.02434771        0.02833395
     179          0.028612        0.000000        0.01220157        0.02252311        0.02578471        0.02771395
     180          0.030425        0.000000        0.01917444        0.01854560        0.03365157        0.02857869
     181          0.049074        0.000000        0.01781420        0.03203269        0.01918091        0.05364951
     182          0.050375        0.000000        0.05339409        0.06731623        0.05808390        0.10909015
     183          0.052671        0.000000        0.05797220        0.06716618        0.06165136        0.09472575
     184          0.053661        0.000000        0.02314447        0.02869548        0.02011787        0.07443094
     185          0.059564        0.000000        0.07365295        0.15264127        0.06765368        0.05556786
     186          0.063113        0.000000        0.07640640        0.08555312        0.05490723        0.08029055
     187          0.067711        0.000000        0.07343951        0.04987224        0.06156051        0.10971295
     188          0.071097        0.000000        0.06364078        0.05681962        0.05809591        0.08983924
     189          0.071978        0.000000        0.06250428        0.04860786        0.06381070        0.11539013
     190          0.073382        0.000000        0.07239698        0.11144373        0.06163859        0.06039759
     191          0.074964        0.000000        0.06346675        0.06246117        0.05376204        0.09740060
     192          0.077142        0.000000        0.06931600        0.07009143        0.05161323        0.08681784
     193          0.081617        0.000000        0.06363807        0.11541859        0.05173748        0.05070974
     194          0.082531        0.000000        0.05163453        0.06777278        0.07316541        0.12072389
     195          0.083746        0.000000        0.07706881        0.09848970        0.05652596        0.07109359
     196          0.084850        0.000000        0.05731459        0.10908951        0.07153970        0.03636618
     197          0.086084        0.000000        0.06218242        0.07950353        0.06050184        0.07358275
     198          0.087781        0.000000        0.05331392        0.08412871        0.05346339        0.05257411
     199          0.089796        0.000000        0.05039382        0.07492052        0.06340404        0.05231827
     200          0.092007        0.000000        0.09226681        0.06276093        0.06693763        0.07113907
     201          0.093591        0.000000        0.06397780        0.07656742        0.05802346        0.07260109
     202          0.095410        0.000000        0.05270780        0.05756154        0.03378800        0.04624832
     203          0.096147        0.000000        0.07116411        0.04963375        0.05446579        0.06563069
     204          0.097460        0.000000        0.06870134        0.05576933        0.05064467        0.07088588
     205          0.097888        0.000000        0.05289423        0.04796949        0.03661839        0.06076968
     206          0.100111        0.000000        0.08165624        0.05436111        0.05308839        0.07668753
     207          0.101395        0.000000        0.07678125        0.06844836        0.05020359        0.06051362
     208          0.102030        0.000000        0.07015845        0.06410087        0.04917095        0.06203895
     209          0.103241        0.000000        0.08727813        0.03898835        0.03985673        0.04950912
     210          0.104559        0.000000        0.07610515        0.05175533        0.04723640        0.06531299
