# Projected DOS for atomic kind Si at iteration step i = 0, E(Fermi) =    -0.094889 a.u.
#     MO Eigenvalue [a.u.]      Occupation                 s                py                pz                px               d-2               d-1                d0               d+1               d+2
       1         -0.558642        2.000000        0.01224035        0.00032467        0.00159716        0.00018276        0.00002392        0.00004100        0.00013061        0.00002642        0.00001899
       2         -0.542779        2.000000        0.65326055        0.00393609        0.02616178        0.00282475        0.00088526        0.00047617        0.03049815        0.00026644        0.00089841
       3         -0.537933        2.000000        0.00683604        0.00156477        0.00119264        0.00275149        0.00022413        0.00010205        0.00014993        0.00016512        0.00009772
       4         -0.534806        2.000000        0.00570700        0.00265995        0.00110028        0.00086802        0.00006253        0.00016980        0.00015578        0.00006454        0.00021800
       5         -0.530654        2.000000        0.00947530        0.00160661        0.00085099        0.00374156        0.00028567        0.00010625        0.00011243        0.00018794        0.00016889
       6         -0.529092        2.000000        0.01692459        0.00494613        0.00093639        0.00350473        0.00036275        0.00022024        0.00017912        0.00015529        0.00050632
       7         -0.527172        2.000000        0.01198925        0.00542997        0.00078241        0.00126493        0.00013455        0.00022115        0.00013243        0.00007578        0.00041063
       8         -0.523191        2.000000        0.46600210        0.12723902        0.01266509        0.07630442        0.00972128        0.00677781        0.00728302        0.00334013        0.01652055
       9         -0.521810        2.000000        0.05115957        0.01276834        0.00155592        0.01147512        0.00129325        0.00057132        0.00077161        0.00058202        0.00142540
      10         -0.517994        2.000000        0.48777373        0.12122058        0.00960778        0.09871517        0.01248806        0.00540821        0.00830408        0.00506180        0.01462340
      11         -0.516741        2.000000        0.48443439        0.05604950        0.01085866        0.16193368        0.01900551        0.00268443        0.00763469        0.00825017        0.00661672
      12         -0.516130        2.000000        0.49824019        0.08799655        0.01206204        0.13631903        0.01713409        0.00471860        0.00739199        0.00573132        0.01172687
      13         -0.512701        2.000000        0.49727257        0.10125018        0.00934322        0.12639914        0.01541754        0.00453544        0.00668505        0.00601875        0.01387693
      14         -0.509880        2.000000        0.49991961        0.16120119        0.00834679        0.07199627        0.00905895        0.00799883        0.00683640        0.00350446        0.01946921
      15         -0.491439        2.000000        0.00175168        0.00139996        0.00052029        0.00066068        0.00015583        0.00023366        0.00013303        0.00014310        0.00013092
      16         -0.487223        2.000000        0.00317149        0.00081489        0.00052354        0.00248065        0.00022911        0.00016656        0.00017320        0.00026881        0.00029919
      17         -0.486148        2.000000        0.00304846        0.00101276        0.00039678        0.00231348        0.00025435        0.00016559        0.00014558        0.00024125        0.00025738
      18         -0.483304        2.000000        0.00430761        0.00210472        0.00034073        0.00195751        0.00034643        0.00020305        0.00013490        0.00021819        0.00034635
      19         -0.481746        2.000000        0.01510249        0.00743459        0.00053196        0.00567322        0.00127624        0.00050442        0.00026808        0.00046614        0.00117927
      20         -0.481070        2.000000        0.00659264        0.00287850        0.00051341        0.00316224        0.00050924        0.00045853        0.00018418        0.00027494        0.00064004
      21         -0.479843        2.000000        0.00399516        0.00218345        0.00055371        0.00154354        0.00044607        0.00027689        0.00017836        0.00033416        0.00033223
      22         -0.477058        2.000000        0.35313942        0.12433309        0.00167757        0.16160701        0.03230680        0.00812337        0.00078235        0.01149255        0.02833781
      23         -0.475526        2.000000        0.08722047        0.03265321        0.00069573        0.03911596        0.00715281        0.00295360        0.00025971        0.00277917        0.00688779
      24         -0.473918        2.000000        0.33801463        0.15075696        0.00168316        0.12513917        0.02638397        0.01186722        0.00055667        0.00939841        0.02948402
      25         -0.470835        2.000000        0.36915515        0.16726295        0.00135061        0.13174031        0.03010341        0.01228848        0.00096501        0.00960631        0.03199263
      26         -0.470574        2.000000        0.39030742        0.18113143        0.00203021        0.10868759        0.02546730        0.01476073        0.00069552        0.00799167        0.05609870
      27         -0.469735        2.000000        0.04739961        0.01939030        0.00057960        0.01827191        0.00408040        0.00134318        0.00027551        0.00133526        0.00493620
      28         -0.468823        2.000000        0.39292429        0.15015979        0.00113593        0.14435484        0.04016566        0.01245842        0.00145863        0.00930245        0.04195348
      29         -0.468117        2.000000        0.40493974        0.09408291        0.00084277        0.19712482        0.06357434        0.00674675        0.00088703        0.01601386        0.03129528
      30         -0.465861        2.000000        0.40020417        0.14416706        0.00126859        0.16351981        0.04273797        0.00967585        0.00138431        0.01311836        0.03281363
      31         -0.465108        2.000000        0.40183415        0.14242538        0.00164005        0.14404006        0.03620502        0.01048125        0.00078056        0.01188509        0.05455757
      32         -0.463774        2.000000        0.40810858        0.12704207        0.00150231        0.14562410        0.05651175        0.01068495        0.00153367        0.01166197        0.04708385
      33         -0.423840        2.000000        0.00691160        0.00272967        0.00245098        0.00797851        0.00027938        0.00022871        0.00058284        0.00069414        0.00006755
      34         -0.420759        2.000000        0.00848884        0.00388730        0.00336003        0.00940265        0.00021416        0.00050820        0.00092849        0.00076678        0.00014049
      35         -0.418677        2.000000        0.02631207        0.03262522        0.01119923        0.00251205        0.00047316        0.00299672        0.00234756        0.00080709        0.00105318
      36         -0.413388        2.000000        0.02342187        0.01168020        0.00879046        0.01829807        0.00135780        0.00177090        0.00187688        0.00228031        0.00062671
      37         -0.411457        2.000000        0.27203542        0.15181948        0.04616034        0.19160545        0.00890193        0.01871099        0.01406896        0.01822623        0.00874885
      38         -0.410387        2.000000        0.02400725        0.00893256        0.00639218        0.02206420        0.00123837        0.00116088        0.00179583        0.00276699        0.00047800
      39         -0.408816        2.000000        0.17894124        0.14607983        0.03306284        0.08462680        0.00422170        0.01544866        0.00913056        0.01033093        0.00538306
      40         -0.408134        2.000000        0.10716767        0.05148590        0.02562164        0.06936892        0.00468371        0.00754773        0.00657170        0.00919028        0.00536204
      41         -0.407277        2.000000        0.17608064        0.09209900        0.02604656        0.14829991        0.00724783        0.00965922        0.00921011        0.01470546        0.00312033
      42         -0.406291        2.000000        0.06938008        0.06523625        0.01100284        0.02737217        0.00158518        0.00710139        0.00344247        0.00265641        0.00291664
      43         -0.405560        2.000000        0.02185982        0.01506996        0.00761190        0.00812783        0.00179516        0.00218466        0.00159630        0.00152691        0.00133167
      44         -0.403160        2.000000        0.03832387        0.02222881        0.01085301        0.01361081        0.00268744        0.00331440        0.00270545        0.00291165        0.00338862
      45         -0.401681        2.000000        0.25804138        0.09675979        0.05600718        0.14100700        0.03189536        0.01259434        0.01638256        0.02235227        0.01312759
      46         -0.398772        2.000000        0.27617843        0.12625637        0.05922541        0.13523995        0.02452670        0.01857180        0.01768523        0.02175642        0.02072947
      47         -0.398116        2.000000        0.27567843        0.14108437        0.08000215        0.11460894        0.01666646        0.02160900        0.01572962        0.01704481        0.03091995
      48         -0.397920        2.000000        0.29612728        0.16341945        0.06566231        0.11186568        0.01793160        0.02273964        0.01992329        0.01534525        0.03498047
      49         -0.395227        2.000000        0.29325236        0.12273652        0.06602074        0.15555896        0.03108587        0.01457284        0.02136633        0.02092228        0.02232343
      50         -0.392798        2.000000        0.28899164        0.13691507        0.06313058        0.13829770        0.02696561        0.01790070        0.02163081        0.01632415        0.02763145
      51         -0.387854        2.000000        0.05835432        0.01770379        0.08178060        0.02455221        0.00521252        0.00362810        0.00768226        0.00493639        0.00335134
      52         -0.381661        2.000000        0.03520965        0.00601441        0.08783139        0.00569988        0.00162688        0.00399679        0.00642262        0.00381404        0.00173681
      53         -0.378841        2.000000        0.05210408        0.01591574        0.12529520        0.00465484        0.00078301        0.00736537        0.00797008        0.00182560        0.00365623
      54         -0.377077        2.000000        0.02858363        0.00426172        0.06428909        0.00729918        0.00191541        0.00184841        0.00511264        0.00329858        0.00110915
      55         -0.375325        2.000000        0.06969647        0.01040328        0.14123170        0.01342012        0.00452236        0.00344821        0.00918507        0.00910978        0.00258232
      56         -0.373088        2.000000        0.08596609        0.02124428        0.17994190        0.01006573        0.00202432        0.01042493        0.01066508        0.00352493        0.00556546
      57         -0.369449        2.000000        0.05920586        0.00732484        0.12458059        0.01247311        0.00313424        0.00401062        0.00787141        0.00709278        0.00212240
      58         -0.366504        2.000000        0.14669491        0.02837690        0.21363673        0.03329641        0.00904726        0.01086864        0.01511737        0.01284011        0.00601530
      59         -0.364012        2.000000        0.14814383        0.04180967        0.19676847        0.02681350        0.00621748        0.01214011        0.01818158        0.00897947        0.01048142
      60         -0.361884        2.000000        0.12151684        0.01983332        0.17000956        0.03645907        0.00860878        0.00469756        0.01387389        0.01277024        0.00424720
      61         -0.360762        2.000000        0.13944100        0.02078306        0.22819662        0.03403484        0.00811141        0.00843232        0.01481510        0.01230816        0.00539370
      62         -0.358381        2.000000        0.15752748        0.04361252        0.23314429        0.02229499        0.00537269        0.01589522        0.01755224        0.00865978        0.01155388
      63         -0.357296        2.000000        0.15490394        0.02958320        0.23780844        0.03488461        0.00764495        0.01215005        0.01753686        0.01141138        0.00787331
      64         -0.353888        2.000000        0.08589955        0.00453755        0.26581688        0.00781662        0.00127822        0.00155738        0.00748004        0.00191510        0.00087589
      65         -0.279529        2.000000        0.00583232        0.10324465        0.37091424        0.19409776        0.00384002        0.00424966        0.01934290        0.00475581        0.00382831
      66         -0.277531        2.000000        0.00493829        0.09604756        0.37639009        0.17304845        0.00157828        0.00276250        0.01683773        0.00368937        0.00264198
      67         -0.273775        2.000000        0.00561481        0.21071810        0.37351281        0.05247091        0.00316828        0.00378614        0.01823506        0.00208922        0.00178244
      68         -0.271083        2.000000        0.01339410        0.07951275        0.26314396        0.11101968        0.00782576        0.00669438        0.00956102        0.00365388        0.01404941
      69         -0.269839        2.000000        0.00907491        0.05549503        0.19887982        0.05995673        0.00803252        0.00434653        0.01065752        0.00276977        0.00583615
      70         -0.268192        2.000000        0.01198432        0.07132549        0.33142841        0.14707291        0.01241428        0.00339468        0.01668183        0.00480154        0.00796051
      71         -0.266598        2.000000        0.00709556        0.03784811        0.11817631        0.05913876        0.00470885        0.00289424        0.00837562        0.00211876        0.00482298
      72         -0.264268        2.000000        0.01326409        0.08989003        0.27294961        0.12703442        0.00635878        0.00784836        0.01249627        0.00125491        0.01685873
      73         -0.263105        2.000000        0.01136782        0.07414778        0.25106534        0.09487792        0.01018212        0.00310090        0.01008521        0.00380218        0.00809541
      74         -0.261743        2.000000        0.01132965        0.09322406        0.24864732        0.08519482        0.00704541        0.00525728        0.01066125        0.00205633        0.01250327
      75         -0.260132        2.000000        0.00887828        0.06625677        0.22349133        0.14059166        0.00799472        0.00651083        0.02140881        0.00172276        0.00827248
      76         -0.259745        2.000000        0.01766160        0.07610594        0.30879638        0.16912169        0.01728105        0.00520511        0.01365400        0.00318819        0.01188113
      77         -0.258150        2.000000        0.01135364        0.11720114        0.26095931        0.13499060        0.01417267        0.00632860        0.03591002        0.00391740        0.00400730
      78         -0.254964        2.000000        0.00829346        0.06186902        0.18425663        0.03463129        0.00375513        0.00601557        0.02934302        0.00298596        0.00755101
      79         -0.253505        2.000000        0.00694824        0.11588231        0.20825776        0.16293531        0.00655018        0.01255673        0.05381222        0.00188616        0.00573866
      80         -0.253164        2.000000        0.01101875        0.09213415        0.16999706        0.07225506        0.00955501        0.00569329        0.02505192        0.00272923        0.00876188
      81         -0.252919        2.000000        0.01340396        0.08618133        0.22193320        0.09099956        0.00769988        0.00525484        0.03995331        0.00532093        0.00771972
      82         -0.252560        2.000000        0.00974029        0.19160572        0.22678595        0.09317985        0.00853903        0.00422141        0.03555736        0.01046380        0.00836298
      83         -0.251872        2.000000        0.00830225        0.12475404        0.23255359        0.10309021        0.00783096        0.00954891        0.04590970        0.00780545        0.00554638
      84         -0.251325        2.000000        0.01491938        0.12128647        0.15429391        0.08072817        0.01026768        0.00302823        0.02700563        0.00416068        0.00777241
      85         -0.250064        2.000000        0.01083800        0.03077683        0.07685660        0.04733828        0.00686595        0.00138970        0.01488933        0.00114904        0.00390576
      86         -0.249447        2.000000        0.01199083        0.06114199        0.18503959        0.11220388        0.00812177        0.00560388        0.04969539        0.00542470        0.00628918
      87         -0.248807        2.000000        0.01355016        0.05353579        0.16896718        0.09303348        0.01173394        0.00271203        0.03802426        0.00555167        0.00503322
      88         -0.247768        2.000000        0.00681755        0.11281814        0.20204501        0.08527183        0.00723196        0.00359273        0.03907379        0.01050906        0.00450051
      89         -0.246923        2.000000        0.01677962        0.12351378        0.16419293        0.13696460        0.01364650        0.00482389        0.03096125        0.00703817        0.00711139
      90         -0.245873        2.000000        0.01594090        0.11450153        0.18356648        0.10633789        0.01095053        0.00440645        0.03405473        0.00399504        0.00998383
      91         -0.245536        2.000000        0.01537558        0.08139200        0.14834999        0.07983252        0.00973265        0.00454369        0.03398534        0.00359414        0.00699354
      92         -0.244685        2.000000        0.01521810        0.10267277        0.20136585        0.07453175        0.00621887        0.00781219        0.05502581        0.00468537        0.01210290
      93         -0.244194        2.000000        0.02206493        0.18145801        0.23256570        0.05906649        0.00538924        0.00641478        0.05123839        0.00484687        0.02538600
      94         -0.242444        2.000000        0.01668564        0.16261483        0.18722147        0.10218505        0.01111550        0.00613024        0.02775380        0.00918967        0.01464414
      95         -0.242310        2.000000        0.02036679        0.07920988        0.18870476        0.13747139        0.01758389        0.00312765        0.03693503        0.00592124        0.00936200
      96         -0.241869        2.000000        0.01541405        0.10899326        0.11941728        0.11705065        0.01261125        0.00286997        0.01507870        0.00558165        0.01157120
      97         -0.241520        2.000000        0.01328436        0.04736636        0.14763137        0.07430975        0.01190204        0.00375987        0.02814673        0.00208262        0.00662168
      98         -0.240709        2.000000        0.00786175        0.06946304        0.11491026        0.01340726        0.00251922        0.00177563        0.02844082        0.00317597        0.00691832
      99         -0.239877        2.000000        0.01955669        0.18093214        0.16507077        0.20278267        0.02164901        0.00898339        0.03122990        0.00545685        0.01645494
     100         -0.238434        2.000000        0.02075971        0.12453591        0.16261925        0.13750613        0.01314321        0.00563339        0.03282930        0.00283983        0.01858721
     101         -0.237947        2.000000        0.01940991        0.08242816        0.12955111        0.07732188        0.00883386        0.00432325        0.02036879        0.00380746        0.01463101
     102         -0.236822        2.000000        0.01906375        0.11412436        0.24936047        0.08896936        0.01328088        0.00452709        0.06929074        0.00637674        0.01364569
     103         -0.236483        2.000000        0.01115309        0.05196008        0.11605112        0.04987142        0.00567742        0.00308121        0.03316959        0.00202056        0.00869909
     104         -0.235489        2.000000        0.01196094        0.05714813        0.15445877        0.10519580        0.01003067        0.00395810        0.03615816        0.00355883        0.00961907
     105         -0.234198        2.000000        0.01255273        0.07114036        0.15200029        0.11006892        0.01338831        0.00431808        0.03350305        0.00424415        0.01024439
     106         -0.233169        2.000000        0.02084426        0.10339703        0.13694798        0.06394635        0.00837988        0.00339509        0.03017696        0.00265997        0.01971835
     107         -0.231773        2.000000        0.01051822        0.11948301        0.14799004        0.11949619        0.00909876        0.00783274        0.02418897        0.00623463        0.01523056
     108         -0.231383        2.000000        0.00907549        0.06435478        0.15342258        0.06697902        0.00439806        0.00625692        0.04007902        0.00182322        0.01040222
     109         -0.230938        2.000000        0.00628346        0.07522724        0.11723153        0.08889426        0.01052911        0.00457961        0.02780716        0.00417705        0.00813979
     110         -0.230594        2.000000        0.01449628        0.11437668        0.15961135        0.09297478        0.01369852        0.00813354        0.04114124        0.00353142        0.00932388
     111         -0.229474        2.000000        0.01156423        0.07546399        0.17775108        0.08879758        0.00966575        0.00810514        0.03922371        0.00452217        0.01204545
     112         -0.228571        2.000000        0.00584268        0.05033589        0.07713324        0.02949214        0.00727133        0.00252095        0.01203432        0.00291651        0.00430187
     113         -0.227511        2.000000        0.00587744        0.08225464        0.15291324        0.12982966        0.00988775        0.00750089        0.02514641        0.00727982        0.01218320
     114         -0.226721        2.000000        0.00815147        0.08752206        0.10852185        0.08564581        0.01124256        0.00609510        0.02282655        0.00486209        0.00864747
     115         -0.226010        2.000000        0.00649325        0.04866116        0.09567245        0.06338463        0.00589271        0.00463214        0.02153302        0.00332867        0.00794796
     116         -0.224838        2.000000        0.00763841        0.08746051        0.08823067        0.09619469        0.01054716        0.00466522        0.01929829        0.00558360        0.00881031
     117         -0.224239        2.000000        0.00643878        0.05986660        0.16451269        0.08588109        0.00683160        0.00735453        0.04422343        0.00574450        0.00764985
     118         -0.222894        2.000000        0.00683597        0.07162368        0.09453104        0.04882165        0.00684797        0.00384845        0.02235575        0.00368750        0.00904577
     119         -0.221785        2.000000        0.00549123        0.08015470        0.13051028        0.09774813        0.01087438        0.00803243        0.02434750        0.00596139        0.00830527
     120         -0.221266        2.000000        0.00837204        0.14141836        0.11269278        0.05444611        0.01737439        0.00433621        0.02048075        0.00827477        0.00657424
     121         -0.220030        2.000000        0.01558728        0.11669420        0.18395198        0.12194732        0.01634089        0.00784198        0.03945722        0.00757767        0.01562982
     122         -0.219764        2.000000        0.00415893        0.11984496        0.12272346        0.05487882        0.01373867        0.00501755        0.01820594        0.00746720        0.00668602
     123         -0.219318        2.000000        0.00222186        0.03305893        0.04317892        0.05220882        0.00373860        0.00377116        0.00807533        0.00297222        0.00384103
     124         -0.217662        2.000000        0.00416525        0.07418541        0.09049709        0.05132414        0.00949983        0.00489944        0.01659634        0.00551688        0.00494299
     125         -0.216731        2.000000        0.00528939        0.02616408        0.09517910        0.03199938        0.00440845        0.00312231        0.02500362        0.00156985        0.00545795
     126         -0.214006        2.000000        0.00464922        0.07788280        0.09828975        0.02117391        0.00859978        0.00400814        0.02590122        0.00447263        0.00288131
     127         -0.212536        2.000000        0.00301838        0.01290792        0.07487189        0.02919592        0.00421439        0.00263998        0.01865635        0.00186589        0.00233530
     128         -0.212156        2.000000        0.00351401        0.03060191        0.06855380        0.01540683        0.00271134        0.00239102        0.01468915        0.00146531        0.00562233
     129         -0.208999        2.000000        0.00182889        0.01800106        0.05847142        0.02402287        0.00346651        0.00194634        0.01324242        0.00213261        0.00275731
     130         -0.208168        2.000000        0.00435038        0.00978412        0.09504702        0.03709044        0.00616130        0.00268460        0.02430757        0.00286233        0.00247769
     131         -0.205265        2.000000        0.00108482        0.02478055        0.03665101        0.01047357        0.00199711        0.00140805        0.00809192        0.00191238        0.00147533
     132         -0.204062        2.000000        0.00369234        0.01878486        0.09160120        0.01822741        0.00247709        0.00342791        0.02743986        0.00190542        0.00352395
     133         -0.201200        2.000000        0.00181213        0.01043510        0.05964948        0.01103732        0.00186076        0.00179171        0.01902865        0.00184983        0.00119022
     134         -0.198790        2.000000        0.00109056        0.01254713        0.04055232        0.01291637        0.00164430        0.00142978        0.01047540        0.00127489        0.00087174
     135         -0.197873        2.000000        0.00065036        0.01206932        0.01737404        0.00640849        0.00106298        0.00073265        0.00243842        0.00125027        0.00072598
     136         -0.197674        2.000000        0.00035842        0.00998494        0.01829405        0.01965810        0.00080094        0.00105018        0.00375008        0.00086028        0.00072574
     137         -0.196563        2.000000        0.00107884        0.01784621        0.02724241        0.02052324        0.00131846        0.00105544        0.00547350        0.00135118        0.00151370
     138         -0.194766        2.000000        0.00043940        0.02032169        0.01873175        0.01478889        0.00083993        0.00112243        0.00374441        0.00090966        0.00094212
     139         -0.190907        2.000000        0.00196576        0.58693741        0.02515524        0.25436023        0.00702342        0.01881730        0.00265596        0.01021592        0.01038502
     140         -0.189857        2.000000        0.00165735        0.05944942        0.02639010        0.75826916        0.01278854        0.00313900        0.00532686        0.02663945        0.00439001
     141         -0.186449        2.000000        0.00216230        0.63212755        0.01989891        0.23302418        0.00516206        0.02003044        0.00323370        0.01184714        0.01046941
     142         -0.174301        2.000000        0.00168364        0.07236966        0.01068099        0.76086947        0.07175741        0.00290038        0.00194739        0.02395635        0.00843224
     143         -0.169184        2.000000        0.00116490        0.53078426        0.01265234        0.30055805        0.02920854        0.01386463        0.00150836        0.00946591        0.05341709
     144         -0.166629        2.000000        0.00110674        0.46119899        0.02318820        0.34532599        0.03119061        0.01529844        0.00326604        0.01261409        0.04780073