# Projected DOS for atomic kind Ge at iteration step i = 0, E(Fermi) =    -0.093733 a.u.
#     MO Eigenvalue [a.u.]      Occupation                 s                py                pz                px               d-2               d-1                d0               d+1               d+2
       1         -0.558194        2.000000        0.75057702        0.00408992        0.01983066        0.00440304        0.00063085        0.00042577        0.00755340        0.00055082        0.00071399
       2         -0.546126        2.000000        0.01407544        0.00015270        0.00307245        0.00029807        0.00003563        0.00001641        0.00068050        0.00004311        0.00002917
       3         -0.537042        2.000000        0.65356287        0.08092138        0.01269960        0.03361305        0.00359654        0.00414150        0.00252373        0.00208195        0.00859241
       4         -0.535109        2.000000        0.65135668        0.02867794        0.01305433        0.08280964        0.00773433        0.00174304        0.00285719        0.00440749        0.00263830
       5         -0.530668        2.000000        0.64437996        0.03606855        0.00855943        0.07872563        0.00767346        0.00196888        0.00329036        0.00456916        0.00399439
       6         -0.529195        2.000000        0.51961005        0.04451349        0.00661284        0.04671304        0.00460335        0.00213453        0.00224735        0.00277559        0.00461977
       7         -0.527083        2.000000        0.54794329        0.07930522        0.00736836        0.01735208        0.00239285        0.00408406        0.00257712        0.00102792        0.00793382
       8         -0.526880        2.000000        0.18104900        0.02458505        0.00394803        0.00616294        0.00075008        0.00142748        0.00109463        0.00047615        0.00299077
       9         -0.523626        2.000000        0.18700921        0.01591718        0.00272927        0.01750715        0.00177292        0.00085500        0.00098275        0.00117840        0.00172763
      10         -0.521994        2.000000        0.44891240        0.02577096        0.00705390        0.05813709        0.00564645        0.00141111        0.00216892        0.00302240        0.00245103
      11         -0.520490        2.000000        0.08633459        0.00458398        0.00277428        0.01025783        0.00117116        0.00031602        0.00065774        0.00080076        0.00060842
      12         -0.518361        2.000000        0.03922912        0.00361531        0.00243069        0.00310341        0.00037535        0.00024257        0.00050662        0.00024956        0.00049302
      13         -0.515621        2.000000        0.01208839        0.00089297        0.00132318        0.00099651        0.00012344        0.00012635        0.00024192        0.00007082        0.00017389
      14         -0.512922        2.000000        0.00384648        0.00049847        0.00084360        0.00019192        0.00003550        0.00004298        0.00014175        0.00003036        0.00008324
      15         -0.490324        2.000000        0.54763810        0.13180014        0.00227286        0.08144556        0.01299337        0.00874356        0.00084542        0.00611898        0.01616586
      16         -0.489034        2.000000        0.54478576        0.07040833        0.00196406        0.14314807        0.01808062        0.00604046        0.00076793        0.00849575        0.01380750
      17         -0.484280        2.000000        0.54232014        0.06882519        0.00136636        0.13193025        0.02199597        0.00447378        0.00043192        0.01003461        0.01267811
      18         -0.483279        2.000000        0.48424101        0.10056195        0.00273960        0.09397215        0.01297165        0.00723080        0.00047858        0.00693640        0.01209187
      19         -0.482339        2.000000        0.26895073        0.06446677        0.00054519        0.03893778        0.00640705        0.00375847        0.00015450        0.00277445        0.00933651
      20         -0.480759        2.000000        0.38994152        0.10839227        0.00154136        0.03441838        0.00524859        0.00703927        0.00041681        0.00268731        0.01989729
      21         -0.479224        2.000000        0.52713429        0.07870916        0.00152629        0.11421433        0.02190304        0.00593943        0.00070239        0.00709771        0.01529636
      22         -0.478646        2.000000        0.54597506        0.12494181        0.00168520        0.06573894        0.01134151        0.00841764        0.00038722        0.00462884        0.02684126
      23         -0.477983        2.000000        0.37316273        0.06852777        0.00141492        0.08458815        0.01053366        0.00381411        0.00024496        0.00482954        0.01083718
      24         -0.477126        2.000000        0.11900654        0.01560545        0.00046375        0.03308912        0.00370087        0.00090350        0.00009007        0.00216897        0.00281053
      25         -0.475346        2.000000        0.04485653        0.00687273        0.00023671        0.01103216        0.00145139        0.00038366        0.00004069        0.00076824        0.00125923
      26         -0.473416        2.000000        0.00860893        0.00195413        0.00032614        0.00130779        0.00026209        0.00013127        0.00003455        0.00012874        0.00029392
      27         -0.472550        2.000000        0.02064929        0.00332460        0.00066556        0.00468496        0.00070671        0.00022302        0.00006122        0.00027256        0.00070264
      28         -0.471309        2.000000        0.01404164        0.00168358        0.00037106        0.00370465        0.00065448        0.00013182        0.00003986        0.00021539        0.00028834
      29         -0.470335        2.000000        0.03606862        0.00522911        0.00047443        0.00794678        0.00178638        0.00028478        0.00008035        0.00058938        0.00077153
      30         -0.469208        2.000000        0.50598810        0.05884036        0.00323027        0.11568849        0.02326113        0.00411442        0.00049266        0.00820716        0.01090815
      31         -0.467813        2.000000        0.00503154        0.00114529        0.00047481        0.00106877        0.00018297        0.00011867        0.00005742        0.00010992        0.00016224
      32         -0.463887        2.000000        0.00276420        0.00062796        0.00048027        0.00084050        0.00010155        0.00004786        0.00004957        0.00004549        0.00008020
      33         -0.423030        2.000000        0.36933156        0.09149777        0.04852104        0.16982295        0.00756640        0.00809439        0.00601666        0.01620078        0.00741402
      34         -0.419660        2.000000        0.35584943        0.09923079        0.03506088        0.17744678        0.00867800        0.00740205        0.00876518        0.01363282        0.00400957
      35         -0.418295        2.000000        0.33665524        0.17251632        0.03791765        0.08383648        0.00481114        0.01379453        0.00696898        0.00614744        0.00891082
      36         -0.413759        2.000000        0.18448950        0.04771996        0.03163710        0.04899217        0.00736861        0.00546625        0.00354815        0.00563448        0.00535309
      37         -0.412694        2.000000        0.20708651        0.04379949        0.03070783        0.06474382        0.00974131        0.00534400        0.00405373        0.00683132        0.00456386
      38         -0.411190        2.000000        0.19233552        0.05967918        0.02494486        0.05726219        0.00781812        0.00487486        0.00486760        0.00619449        0.00575236
      39         -0.410704        2.000000        0.08849060        0.01875531        0.01272419        0.03503588        0.00423996        0.00211576        0.00204992        0.00344229        0.00205396
      40         -0.409397        2.000000        0.22436239        0.05395202        0.04053753        0.07324551        0.00863050        0.00614351        0.00437149        0.00786259        0.00722662
      41         -0.406730        2.000000        0.37879663        0.11135423        0.04567246        0.11693867        0.01197072        0.01035599        0.01142430        0.01012171        0.01767055
      42         -0.406489        2.000000        0.24184842        0.10146799        0.03923736        0.05139476        0.00515986        0.01020835        0.00701864        0.00580396        0.00970941
      43         -0.404407        2.000000        0.11277135        0.03637169        0.01465041        0.03337876        0.00353703        0.00352057        0.00281570        0.00301586        0.00410246
      44         -0.403538        2.000000        0.14047342        0.04129154        0.01555908        0.04209232        0.00604080        0.00356989        0.00472418        0.00400268        0.00460157
      45         -0.402851        2.000000        0.31637662        0.07881284        0.03930571        0.10377496        0.01437836        0.00692403        0.01029095        0.01009588        0.00941205
      46         -0.402716        2.000000        0.25561866        0.09230643        0.03280681        0.06086758        0.00610844        0.00829000        0.00733937        0.00550969        0.01174449
      47         -0.401430        2.000000        0.08950439        0.02710284        0.01211429        0.02471681        0.00282951        0.00240711        0.00241447        0.00243075        0.00417154
      48         -0.400365        2.000000        0.01567560        0.00433308        0.00224747        0.00593981        0.00052544        0.00056281        0.00039088        0.00033567        0.00061964
      49         -0.398896        2.000000        0.06502059        0.02263013        0.01042100        0.01546651        0.00177833        0.00180303        0.00147467        0.00159552        0.00274535
      50         -0.396101        2.000000        0.00649147        0.00215020        0.00291321        0.00177415        0.00017949        0.00018818        0.00022802        0.00018548        0.00021329
      51         -0.385406        2.000000        0.20715804        0.01873107        0.23871275        0.03047802        0.00510611        0.00518794        0.00891860        0.00679399        0.00287300
      52         -0.381089        2.000000        0.20656627        0.03955844        0.20993340        0.02071521        0.00315604        0.00777011        0.01143504        0.00356312        0.00668785
      53         -0.378948        2.000000        0.08967157        0.00819297        0.11872007        0.01257489        0.00225549        0.00143738        0.00657703        0.00315631        0.00117312
      54         -0.377043        2.000000        0.08837248        0.01327217        0.09673610        0.00997125        0.00217118        0.00270107        0.00523443        0.00275265        0.00167144
      55         -0.375937        2.000000        0.14890222        0.01654607        0.13932569        0.02811868        0.00392226        0.00365077        0.01114778        0.00480318        0.00283735
      56         -0.374288        2.000000        0.10837407        0.00895022        0.09648775        0.02203269        0.00391159        0.00177196        0.00731733        0.00398617        0.00170573
      57         -0.373242        2.000000        0.17847759        0.02519862        0.17824201        0.01961444        0.00316544        0.00490012        0.01106445        0.00462677        0.00422346
      58         -0.366323        2.000000        0.12691874        0.02176996        0.12154188        0.01578227        0.00226248        0.00411892        0.00775981        0.00251159        0.00311457
      59         -0.365015        2.000000        0.11869878        0.01454682        0.08364685        0.02578510        0.00371406        0.00229517        0.00734206        0.00383872        0.00247730
      60         -0.363803        2.000000        0.09960937        0.01832132        0.08149277        0.01368126        0.00193038        0.00280460        0.00587602        0.00218427        0.00299930
      61         -0.363141        2.000000        0.11998484        0.01723560        0.08636378        0.02314634        0.00335416        0.00290374        0.00727862        0.00314943        0.00254602
      62         -0.361793        2.000000        0.13528713        0.01255438        0.15361116        0.02411401        0.00371870        0.00185465        0.00707601        0.00406881        0.00143392
      63         -0.358506        2.000000        0.15657258        0.02908350        0.14212534        0.01248606        0.00223348        0.00559426        0.00885415        0.00332669        0.00441383
      64         -0.351582        2.000000        0.07645296        0.00664872        0.11350387        0.00581542        0.00109731        0.00100762        0.00449888        0.00109706        0.00079580
      65         -0.280223        2.000000        0.00235742        0.00692437        0.01816152        0.00937846        0.00020550        0.00040257        0.00144275        0.00027701        0.00046058
      66         -0.279219        2.000000        0.00075142        0.00131345        0.00599515        0.00284412        0.00011382        0.00010286        0.00041777        0.00025010        0.00012240
      67         -0.276989        2.000000        0.00114605        0.00205135        0.00709915        0.00171661        0.00013265        0.00039241        0.00083400        0.00012507        0.00017616
      68         -0.273401        2.000000        0.00686004        0.02001142        0.07356113        0.03295779        0.00134009        0.00063323        0.00490096        0.00061661        0.00203121
      69         -0.271079        2.000000        0.00732779        0.03315430        0.09329480        0.04894962        0.00214178        0.00088601        0.00471961        0.00048247        0.00167562
      70         -0.269577        2.000000        0.00585191        0.04363067        0.09559613        0.04704178        0.00131844        0.00088774        0.00322479        0.00051681        0.00161841
      71         -0.267496        2.000000        0.00344642        0.01496727        0.05235849        0.02632953        0.00044557        0.00029971        0.00187886        0.00023541        0.00108390
      72         -0.265880        2.000000        0.00662804        0.09126135        0.24949684        0.11888349        0.00150824        0.00060685        0.00751522        0.00114917        0.00176243
      73         -0.264411        2.000000        0.00442427        0.04095570        0.23570545        0.10957351        0.00202239        0.00079087        0.00953684        0.00159263        0.00087460
      74         -0.262700        2.000000        0.00482326        0.03444109        0.10415060        0.04905317        0.00151803        0.00069352        0.00348949        0.00068738        0.00179463
      75         -0.262073        2.000000        0.00457224        0.11572371        0.14849624        0.02771406        0.00145391        0.00104156        0.00411184        0.00028662        0.00102512
      76         -0.261494        2.000000        0.00483403        0.03183770        0.11991207        0.04799930        0.00203599        0.00075646        0.00460276        0.00072410        0.00105473
      77         -0.258804        2.000000        0.00291961        0.01763455        0.05095019        0.01481610        0.00099082        0.00029907        0.00319434        0.00026145        0.00064284
      78         -0.257210        2.000000        0.00381735        0.01214950        0.04741548        0.01663629        0.00095038        0.00037812        0.00368418        0.00022545        0.00093233
      79         -0.256430        2.000000        0.00404370        0.03611170        0.11471066        0.03468832        0.00097578        0.00082107        0.00511294        0.00098527        0.00239646
      80         -0.255913        2.000000        0.00484227        0.04378458        0.18959993        0.04030003        0.00245578        0.00155623        0.01383371        0.00103567        0.00234190
      81         -0.254711        2.000000        0.01012484        0.03295110        0.12606009        0.05439538        0.00339929        0.00136389        0.00863908        0.00091320        0.00255243
      82         -0.254038        2.000000        0.00348959        0.04509309        0.10412295        0.00979085        0.00115990        0.00070874        0.00884762        0.00053745        0.00146260
      83         -0.252370        2.000000        0.00757396        0.04107901        0.09612205        0.03205151        0.00244822        0.00053759        0.00618808        0.00055507        0.00231271
      84         -0.251191        2.000000        0.00694620        0.03511759        0.17851089        0.06666051        0.00384191        0.00092640        0.00883693        0.00110353        0.00259271
      85         -0.250634        2.000000        0.00706542        0.04307315        0.14536173        0.04632290        0.00230174        0.00189295        0.00814167        0.00085821        0.00355227
      86         -0.250054        2.000000        0.00681489        0.02775400        0.10858225        0.03984707        0.00281335        0.00062520        0.00759012        0.00069994        0.00158320
      87         -0.249303        2.000000        0.01185112        0.06883898        0.21804039        0.10458195        0.00411925        0.00169118        0.00770517        0.00150760        0.00696471
      88         -0.248549        2.000000        0.00446701        0.03159528        0.11017554        0.03026930        0.00209538        0.00097736        0.00438618        0.00056644        0.00247002
      89         -0.247655        2.000000        0.01011736        0.10225748        0.21863518        0.07524493        0.00528768        0.00191211        0.01049817        0.00161383        0.00332406
      90         -0.247023        2.000000        0.00533527        0.02820363        0.13159512        0.04420709        0.00229623        0.00123092        0.00766012        0.00127062        0.00229425
      91         -0.246179        2.000000        0.00520963        0.02657273        0.13612434        0.03971452        0.00221991        0.00259971        0.01612316        0.00213017        0.00124995
      92         -0.245810        2.000000        0.00863848        0.03549705        0.13440446        0.04220136        0.00242616        0.00093802        0.00781360        0.00070509        0.00340370
      93         -0.244518        2.000000        0.01116188        0.04440905        0.16800067        0.09286194        0.00482380        0.00166575        0.01001716        0.00120222        0.00378671
      94         -0.243501        2.000000        0.00571309        0.02302248        0.14194497        0.05863474        0.00196472        0.00238724        0.01431792        0.00151758        0.00319877
      95         -0.243286        2.000000        0.00650232        0.02588895        0.12926563        0.04883423        0.00277930        0.00132718        0.01089532        0.00126669        0.00178598
      96         -0.242325        2.000000        0.00863725        0.04824903        0.22912739        0.06628126        0.00389793        0.00272389        0.01598477        0.00142009        0.00421562
      97         -0.242017        2.000000        0.00859112        0.06938207        0.16627938        0.02229018        0.00323129        0.00119240        0.01183035        0.00111292        0.00419401
      98         -0.240629        2.000000        0.00832339        0.03754015        0.15124254        0.05098335        0.00386820        0.00087725        0.01073872        0.00112102        0.00188194
      99         -0.239867        2.000000        0.00532373        0.04400451        0.16613163        0.04063541        0.00269746        0.00116166        0.01793877        0.00147349        0.00238257
     100         -0.238448        2.000000        0.01298836        0.08583193        0.14279030        0.04177229        0.00343552        0.00183755        0.01228542        0.00159113        0.00451008
     101         -0.237924        2.000000        0.00759522        0.03095326        0.13872253        0.05399816        0.00242019        0.00208603        0.01575475        0.00164597        0.00204464
     102         -0.237741        2.000000        0.00844375        0.05985774        0.13785010        0.05955204        0.00318567        0.00195945        0.01397050        0.00251889        0.00240918
     103         -0.237193        2.000000        0.00295973        0.06387788        0.15257400        0.04212278        0.00144667        0.00304379        0.02355297        0.00215603        0.00142789
     104         -0.234904        2.000000        0.01142574        0.04328727        0.19403494        0.08240609        0.00360130        0.00311524        0.02777966        0.00199597        0.00244095
     105         -0.234061        2.000000        0.01834771        0.15959032        0.18442546        0.11413489        0.00848026        0.00312642        0.01646006        0.00364053        0.00622441
     106         -0.233220        2.000000        0.00575212        0.03357160        0.12645307        0.06691453        0.00218915        0.00236876        0.01135442        0.00144970        0.00298265
     107         -0.232280        2.000000        0.00347668        0.07847878        0.12774709        0.07150294        0.00249368        0.00283188        0.01709819        0.00278138        0.00144981
     108         -0.231865        2.000000        0.01450718        0.05298761        0.15566247        0.08937117        0.00574778        0.00146677        0.01830277        0.00347019        0.00320524
     109         -0.231576        2.000000        0.01804287        0.05097838        0.15586587        0.07138738        0.00807892        0.00230020        0.01760277        0.00164259        0.00560938
     110         -0.231039        2.000000        0.01527754        0.10078531        0.21942460        0.11970130        0.00489427        0.00401103        0.02687348        0.00337987        0.00661665
     111         -0.229704        2.000000        0.01243760        0.07152555        0.19951820        0.09040453        0.00528850        0.00513721        0.02250965        0.00375880        0.00241781
     112         -0.228595        2.000000        0.00792571        0.08600749        0.19001529        0.05068626        0.00196516        0.00357214        0.02461535        0.00404798        0.00457982
     113         -0.227998        2.000000        0.01582474        0.05816735        0.14520139        0.09465833        0.00678820        0.00211642        0.01498326        0.00261058        0.00431839
     114         -0.226658        2.000000        0.02397140        0.10305707        0.19099089        0.10186747        0.00860988        0.00286396        0.02193768        0.00225723        0.00721942
     115         -0.225867        2.000000        0.02363666        0.09460559        0.18769937        0.07989029        0.00723934        0.00257983        0.01991630        0.00275121        0.00667751
     116         -0.225216        2.000000        0.02814700        0.08269608        0.17769799        0.12860736        0.01082239        0.00231681        0.01509646        0.00330491        0.00673813
     117         -0.224530        2.000000        0.03044304        0.13461537        0.21911073        0.10489331        0.00823182        0.00327720        0.02177961        0.00212281        0.01121289
     118         -0.223993        2.000000        0.01477171        0.11284589        0.10990823        0.04505569        0.00336307        0.00108360        0.01500471        0.00192591        0.00714775
     119         -0.222858        2.000000        0.00955513        0.12647736        0.16421311        0.07386521        0.00282791        0.00381697        0.01984082        0.00267640        0.00686531
     120         -0.222538        2.000000        0.01884819        0.07812236        0.24384608        0.09973124        0.00789737        0.00438810        0.02522322        0.00320286        0.01052533
     121         -0.220898        2.000000        0.03002170        0.15255951        0.19085268        0.09655844        0.00818344        0.00209902        0.02069662        0.00187169        0.01312846
     122         -0.220524        2.000000        0.02461830        0.10567497        0.20662778        0.18017146        0.01284454        0.00495678        0.01838548        0.00400940        0.00762690
     123         -0.219407        2.000000        0.03138377        0.13887711        0.22627584        0.12433353        0.00960008        0.00244546        0.02177594        0.00474917        0.01146936
     124         -0.218356        2.000000        0.01122989        0.12201965        0.15000390        0.14263881        0.00714832        0.00401979        0.01983904        0.00391456        0.00655281
     125         -0.215066        2.000000        0.02669005        0.15680690        0.20996081        0.15913632        0.00856941        0.00358322        0.01987581        0.00624342        0.01103147
     126         -0.213467        2.000000        0.00733375        0.09816512        0.24457711        0.08683720        0.00632449        0.00408157        0.03960543        0.00757406        0.00438279
     127         -0.213041        2.000000        0.00700760        0.11164718        0.19325647        0.11492155        0.00327237        0.00335344        0.04057593        0.00543786        0.00561397
     128         -0.212024        2.000000        0.01125985        0.08991233        0.19771834        0.14677883        0.00832284        0.00522277        0.03303365        0.00417919        0.00702556
     129         -0.208556        2.000000        0.02093911        0.12250446        0.20829973        0.10353445        0.00774083        0.00242091        0.03603568        0.00461019        0.01076885
     130         -0.208499        2.000000        0.02818471        0.11175808        0.23174346        0.12006245        0.01327004        0.00321217        0.02939590        0.00633181        0.00952103
     131         -0.207114        2.000000        0.02049742        0.21094863        0.22575588        0.06947473        0.01381711        0.00590738        0.03104621        0.00666924        0.00846555
     132         -0.204326        2.000000        0.02043242        0.22293214        0.17290933        0.28518647        0.00863366        0.00817266        0.01845535        0.01077389        0.01947110
     133         -0.203381        2.000000        0.01599240        0.20653846        0.19744658        0.17515894        0.01030455        0.00843527        0.02637667        0.00560100        0.01528883
     134         -0.201438        2.000000        0.01552261        0.12709909        0.24849960        0.19668235        0.00998016        0.00629318        0.03138577        0.00885030        0.01444509
     135         -0.199970        2.000000        0.02043869        0.16824704        0.17019933        0.24657586        0.01251027        0.00750943        0.01583585        0.00840057        0.01583554
     136         -0.198113        2.000000        0.01123996        0.07235628        0.19424107        0.09796092        0.00641912        0.00472014        0.03815312        0.00300383        0.00639492
     137         -0.195768        2.000000        0.01892167        0.25080771        0.21462726        0.17522915        0.01946299        0.01533420        0.02020862        0.00965600        0.00703139
     138         -0.195263        2.000000        0.01884854        0.26227691        0.15287511        0.07053811        0.01831829        0.00460205        0.01580519        0.00773207        0.00675922
     139         -0.194178        2.000000        0.00602060        0.06924195        0.05953697        0.02282845        0.00456735        0.00167870        0.00670340        0.00218361        0.00320239
     140         -0.191476        2.000000        0.00154882        0.01497978        0.01602950        0.00612565        0.00118786        0.00042131        0.00154026        0.00049823        0.00075618
     141         -0.188755        2.000000        0.00025584        0.00268578        0.00478304        0.00181955        0.00014923        0.00011691        0.00058774        0.00008321        0.00023650
     142         -0.176832        2.000000        0.00005268        0.00079780        0.00254622        0.00101445        0.00005750        0.00004834        0.00032582        0.00005392        0.00006788
     143         -0.171164        2.000000        0.00004583        0.00038783        0.00089505        0.00075594        0.00002052        0.00002287        0.00009429        0.00003851        0.00002278
     144         -0.170171        2.000000        0.00010355        0.00057706        0.00136100        0.00059018        0.00004644        0.00004740        0.00016575        0.00001973        0.00005060